
units               metal
atom_style          molecular
atom_modify         map yes
newton              on
dimension           3
boundary            f f f

variable            model_file       string "/home/utente/giuseppe/ML_Embedding/MACE/Alanine_dipeptide/MACE-OFF_2023_small/MACE-OFF23_small.model-mliap_lammps_float32.pt"
variable            species1         string "C"
variable            species2         string "N"
variable            species3         string "O"
variable            species4         string "H"
variable            vdwparm_file     string "bias/VDWPARM_R15_S0125_step5000_stage13_outerSingles41_60.dat"
variable            gaufile          string "bias/gau_stage13.dat"

variable            R                equal 15.0
variable            rho0             equal 0.037235960250849326
variable            dr               equal 0.25
variable            nl               equal 61
variable            vdw_scale        equal 0.0005
variable            T                equal 300.0
variable            dt               equal 0.001
variable            tdamp            equal 0.1
variable            anchor_k         equal 0.3
variable            rmom_every       index 10
variable            prod_steps       index 5000000
variable            thermo_stride    index 500
variable            dump_stride      index 500
variable            dens_stride      index 1000

read_restart        npbc/restart_alanine_nbpc_off23_stage13corr_s991000_20260319_194116_eq.lammps
Reading restart file ...
  restart file = 2 Apr 2025, LAMMPS = 2 Apr 2025
  restoring atom style molecular/kk from restart
  orthogonal box = (-20 -20 -20) to (20 20 20)
  1 by 1 by 1 MPI processor grid
  pair style mliap stores no restart info
  1570 atoms
Finding 1-2 1-3 1-4 neighbors ...
  special bond factors lj:    0        0        0       
  special bond factors coul:  0        0        0       
     0 = max # of 1-2 neighbors
     0 = max # of 1-3 neighbors
     0 = max # of 1-4 neighbors
     1 = max # of special neighbors
  special bonds CPU = 0.001 seconds
  read_restart CPU = 0.010 seconds
timestep            ${dt}
timestep            0.001

pair_style          mliap unified ${model_file} 0
pair_style          mliap unified /home/utente/giuseppe/ML_Embedding/MACE/Alanine_dipeptide/MACE-OFF_2023_small/MACE-OFF23_small.model-mliap_lammps_float32.pt 0
pair_coeff          * * ${species1} ${species2} ${species3} ${species4}
pair_coeff          * * C ${species2} ${species3} ${species4}
pair_coeff          * * C N ${species3} ${species4}
pair_coeff          * * C N O ${species4}
pair_coeff          * * C N O H

group               solute molecule 1
22 atoms in group solute
group               solvent subtract all solute
1548 atoms in group solvent

compute             t_solute  solute temp
compute             t_solvent solvent temp
compute             com_solv  solvent com
variable            rcom_solv equal sqrt(c_com_solv[1]^2 + c_com_solv[2]^2 + c_com_solv[3]^2)

thermo_style        custom step time temp c_t_solute c_t_solvent v_rcom_solv etotal epair press
thermo              ${thermo_stride}
thermo              500
thermo_modify       flush yes

fix                 anchor    solute spring tether ${anchor_k} 0.0 0.0 0.0 0.0
fix                 anchor    solute spring tether 0.3 0.0 0.0 0.0 0.0
fix                 int_sol   solute nvt temp ${T} ${T} ${tdamp}
fix                 int_sol   solute nvt temp 300 ${T} ${tdamp}
fix                 int_sol   solute nvt temp 300 300 ${tdamp}
fix                 int_sol   solute nvt temp 300 300 0.1
Resetting global fix info from restart file:
  fix style: nvt/kk, fix ID: int_sol
fix                 int_solv  solvent nvt temp ${T} ${T} ${tdamp}
fix                 int_solv  solvent nvt temp 300 ${T} ${tdamp}
fix                 int_solv  solvent nvt temp 300 300 ${tdamp}
fix                 int_solv  solvent nvt temp 300 300 0.1
Resetting global fix info from restart file:
  fix style: nvt/kk, fix ID: int_solv
fix                 rmom      all momentum ${rmom_every} linear 1 1 1
fix                 rmom      all momentum 10 linear 1 1 1
fix                 wall      solvent cavity/reflect sphere 0.0 0.0 0.0 ${R} 0
fix                 wall      solvent cavity/reflect sphere 0.0 0.0 0.0 15 0
fix                 mf        solvent cavity/meanfield sphere 0.0 0.0 0.0 ${R} ${rho0} ${dr} ${nl} vdwparm ${vdwparm_file} gauout npbc/gau_alanine_nbpc_off23_stage13corr_s991000_20260319_194116_prod.out vdw_scale ${vdw_scale} opt no gaufile ${gaufile} write_every 1 dens yes dens_every ${dens_stride} densfile npbc/dens_shells_alanine_nbpc_off23_stage13corr_s991000_20260319_194116_prod.dat
fix                 mf        solvent cavity/meanfield sphere 0.0 0.0 0.0 15 ${rho0} ${dr} ${nl} vdwparm ${vdwparm_file} gauout npbc/gau_alanine_nbpc_off23_stage13corr_s991000_20260319_194116_prod.out vdw_scale ${vdw_scale} opt no gaufile ${gaufile} write_every 1 dens yes dens_every ${dens_stride} densfile npbc/dens_shells_alanine_nbpc_off23_stage13corr_s991000_20260319_194116_prod.dat
fix                 mf        solvent cavity/meanfield sphere 0.0 0.0 0.0 15 0.0372359602508493 ${dr} ${nl} vdwparm ${vdwparm_file} gauout npbc/gau_alanine_nbpc_off23_stage13corr_s991000_20260319_194116_prod.out vdw_scale ${vdw_scale} opt no gaufile ${gaufile} write_every 1 dens yes dens_every ${dens_stride} densfile npbc/dens_shells_alanine_nbpc_off23_stage13corr_s991000_20260319_194116_prod.dat
fix                 mf        solvent cavity/meanfield sphere 0.0 0.0 0.0 15 0.0372359602508493 0.25 ${nl} vdwparm ${vdwparm_file} gauout npbc/gau_alanine_nbpc_off23_stage13corr_s991000_20260319_194116_prod.out vdw_scale ${vdw_scale} opt no gaufile ${gaufile} write_every 1 dens yes dens_every ${dens_stride} densfile npbc/dens_shells_alanine_nbpc_off23_stage13corr_s991000_20260319_194116_prod.dat
fix                 mf        solvent cavity/meanfield sphere 0.0 0.0 0.0 15 0.0372359602508493 0.25 61 vdwparm ${vdwparm_file} gauout npbc/gau_alanine_nbpc_off23_stage13corr_s991000_20260319_194116_prod.out vdw_scale ${vdw_scale} opt no gaufile ${gaufile} write_every 1 dens yes dens_every ${dens_stride} densfile npbc/dens_shells_alanine_nbpc_off23_stage13corr_s991000_20260319_194116_prod.dat
fix                 mf        solvent cavity/meanfield sphere 0.0 0.0 0.0 15 0.0372359602508493 0.25 61 vdwparm bias/VDWPARM_R15_S0125_step5000_stage13_outerSingles41_60.dat gauout npbc/gau_alanine_nbpc_off23_stage13corr_s991000_20260319_194116_prod.out vdw_scale ${vdw_scale} opt no gaufile ${gaufile} write_every 1 dens yes dens_every ${dens_stride} densfile npbc/dens_shells_alanine_nbpc_off23_stage13corr_s991000_20260319_194116_prod.dat
fix                 mf        solvent cavity/meanfield sphere 0.0 0.0 0.0 15 0.0372359602508493 0.25 61 vdwparm bias/VDWPARM_R15_S0125_step5000_stage13_outerSingles41_60.dat gauout npbc/gau_alanine_nbpc_off23_stage13corr_s991000_20260319_194116_prod.out vdw_scale 0.0005 opt no gaufile ${gaufile} write_every 1 dens yes dens_every ${dens_stride} densfile npbc/dens_shells_alanine_nbpc_off23_stage13corr_s991000_20260319_194116_prod.dat
fix                 mf        solvent cavity/meanfield sphere 0.0 0.0 0.0 15 0.0372359602508493 0.25 61 vdwparm bias/VDWPARM_R15_S0125_step5000_stage13_outerSingles41_60.dat gauout npbc/gau_alanine_nbpc_off23_stage13corr_s991000_20260319_194116_prod.out vdw_scale 0.0005 opt no gaufile bias/gau_stage13.dat write_every 1 dens yes dens_every ${dens_stride} densfile npbc/dens_shells_alanine_nbpc_off23_stage13corr_s991000_20260319_194116_prod.dat
fix                 mf        solvent cavity/meanfield sphere 0.0 0.0 0.0 15 0.0372359602508493 0.25 61 vdwparm bias/VDWPARM_R15_S0125_step5000_stage13_outerSingles41_60.dat gauout npbc/gau_alanine_nbpc_off23_stage13corr_s991000_20260319_194116_prod.out vdw_scale 0.0005 opt no gaufile bias/gau_stage13.dat write_every 1 dens yes dens_every 1000 densfile npbc/dens_shells_alanine_nbpc_off23_stage13corr_s991000_20260319_194116_prod.dat

dump                dprod all custom ${dump_stride} npbc/traj_alanine_nbpc_off23_stage13corr_s991000_20260319_194116_prod.dump id mol type x y z
dump                dprod all custom 500 npbc/traj_alanine_nbpc_off23_stage13corr_s991000_20260319_194116_prod.dump id mol type x y z
dump_modify         dprod sort id append no

run                 ${prod_steps}
run                 5000000
All restart file global fix info was re-assigned
cavity/meanfield: enabling VDWPARM mode, reading bias/VDWPARM_R15_S0125_step5000_stage13_outerSingles41_60.dat
cavity/meanfield: reading initial amplitudes from bias/gau_stage13.dat
Neighbor list info ...
  update: every = 1 steps, delay = 0 steps, check = yes
  max neighbors/atom: 2000, page size: 100000
  master list distance cutoff = 6.5
  ghost atom cutoff = 6.5
  binsize = 6.5, bins = 7 7 7
  1 neighbor lists, perpetual/occasional/extra = 1 0 0
  (1) pair mliap/kk, perpetual
      attributes: full, newton on, kokkos_device
      pair build: full/bin/kk/device
      stencil: full/bin/3d
      bin: kk/device
Per MPI rank memory allocation (min/avg/max) = 342.4 | 342.4 | 342.4 Mbytes
   Step          Time           Temp        c_t_solute    c_t_solvent    v_rcom_solv       TotEng         E_pair         Press     
    500000   500            294.19677      310.20224      294.16967      0.047233587   -1087496.9     -1087556.6     -524.31644    
    500500   500.5          290.26535      293.6436       290.40712      0.043822578   -1087498.9     -1087557.8     -389.06549    
    501000   501            308.04167      392.22843      307.09798      0.041611903   -1087494.5     -1087557       -103.01767    
    501500   501.5          298.66926      373.50306      297.84648      0.048427379   -1087497.9     -1087558.5      67.32633     
    502000   502            297.77468      238.17911      298.77616      0.048929236   -1087494.8     -1087555.2     -309.86725    
    502500   502.5          300.6393       311.31864      300.68867      0.044178944   -1087493.9     -1087554.8      413.39144    
    503000   503            295.45907      359.91126      294.77514      0.040671105   -1087497.6     -1087557.5     -672.33762    
    503500   503.5          303.73592      270.18413      304.38771      0.048882073   -1087493.6     -1087555.2     -240.21922    
    504000   504            302.57471      264.85235      303.28237      0.046033562   -1087491       -1087552.4     -248.32543    
    504500   504.5          288.18199      224.78314      289.2289       0.050498554   -1087496.1     -1087554.6      92.129607    
    505000   505            292.72012      282.58682      293.0469       0.051743935   -1087494.5     -1087553.9     -295.30203    
    505500   505.5          300.23896      252.91935      301.07539      0.052284885   -1087496.8     -1087557.7     -375.17764    
    506000   506            301.75782      293.46173      302.0655       0.051190157   -1087493.7     -1087554.9     -532.39096    
    506500   506.5          294.4155       320.12669      294.2568       0.047433988   -1087494.2     -1087553.9     -208.28462    
    507000   507            295.15452      259.30213      295.832        0.046239379   -1087499.2     -1087559.1     -129.2694     
    507500   507.5          297.79704      262.91607      298.46304      0.048274929   -1087497.7     -1087558.1     -654.7998     
    508000   508            311.2724       313.57299      311.44239      0.052717704   -1087492.6     -1087555.7     -26.767792    
    508500   508.5          286.86529      226.54816      287.86951      0.047880111   -1087498.6     -1087556.8     -512.26161    
    509000   509            299.31814      438.33069      297.62457      0.047207081   -1087494.8     -1087555.5     -171.00175    
    509500   509.5          301.32879      373.85172      300.5391       0.053874396   -1087493.9     -1087555.1     -330.70496    
    510000   510            291.90422      243.50405      292.74992      0.04521842    -1087497.8     -1087557       -29.137699    
    510500   510.5          295.87888      199.31985      297.38089      0.052251494   -1087497       -1087557       -320.37537    
    511000   511            294.36694      272.66225      294.85185      0.046799915   -1087496       -1087555.7     -365.43398    
    511500   511.5          302.3504       233.09884      303.48591      0.050214656   -1087494.1     -1087555.4      675.18157    
    512000   512            309.44749      276.40602      310.09605      0.057213532   -1087491.2     -1087554        186.76556    
    512500   512.5          299.94878      254.10582      300.76497      0.055058067   -1087495.8     -1087556.6     -67.873671    
    513000   513            303.93594      255.85304      304.78512      0.048885411   -1087492.9     -1087554.6      566.60959    
    513500   513.5          306.20026      279.7903       306.7567       0.054314927   -1087494.2     -1087556.3     -193.36316    
    514000   514            306.19689      289.53124      306.62105      0.057133785   -1087494.6     -1087556.7      16.857656    
    514500   514.5          310.86587      403.94487      309.8033       0.050807135   -1087490.6     -1087553.6     -148.16105    
    515000   515            303.65301      298.35419      303.92123      0.049984872   -1087493.6     -1087555.2      214.24268    
    515500   515.5          296.21115      240.11264      297.16414      0.053765696   -1087495.3     -1087555.4      290.25925    
    516000   516            298.5225       283.50672      298.9193       0.059475966   -1087492.9     -1087553.4     -557.9396     
    516500   516.5          296.03249      255.4294       296.77503      0.051208014   -1087495.1     -1087555.2     -157.59701    
    517000   517            301.53825      274.26411      302.10341      0.045164553   -1087490.4     -1087551.6     -203.7104     
    517500   517.5          288.02814      301.56661      288.03055      0.054089436   -1087498       -1087556.5     -55.916611    
    518000   518            292.11563      302.15046      292.16824      0.049856683   -1087495.1     -1087554.4     -92.323568    
    518500   518.5          294.52609      311.49069      294.48619      0.055609544   -1087494.7     -1087554.4      93.355326    
    519000   519            290.83615      258.40722      291.46436      0.043644315   -1087496.3     -1087555.3     -713.85538    
    519500   519.5          291.48064      243.72466      292.31733      0.05122154    -1087496.9     -1087556       -44.234313    
    520000   520            302.25257      276.76624      302.79392      0.046448549   -1087491.9     -1087553.2      139.18397    
    520500   520.5          297.02988      264.07572      297.66923      0.040276344   -1087492.1     -1087552.4      8.0540709    
    521000   521            300.77575      436.13887      299.13266      0.046867935   -1087492.1     -1087553.1     -507.16657    
    521500   521.5          300.59102      288.23882      300.953        0.054484152   -1087494.8     -1087555.8      211.4737     
    522000   522            301.39383      313.19103      301.42851      0.050477571   -1087493.3     -1087554.5     -685.62694    
    522500   522.5          293.45496      250.03228      294.2341       0.0524415     -1087498.5     -1087558       -106.44559    
    523000   523            300.99755      358.76298      300.40797      0.053876047   -1087492.2     -1087553.3      411.41369    
    523500   523.5          303.43025      382.43228      302.55396      0.051959912   -1087493.8     -1087555.3     -734.26302    
    524000   524            306.16868      261.093        306.97848      0.049037754   -1087494.6     -1087556.7     -544.41146    
    524500   524.5          293.6287       351.70433      293.03014      0.048908461   -1087497.1     -1087556.7     -407.43756    
    525000   525            297.15021      204.72492      298.59693      0.042206616   -1087498       -1087558.2     -412.96713    
    525500   525.5          295.28113      320.88712      295.12441      0.046216298   -1087493       -1087552.9      314.18843    
    526000   526            299.41003      319.346        299.33295      0.04155275    -1087491.2     -1087551.9     -339.28121    
    526500   526.5          303.08728      308.94659      303.20366      0.038053718   -1087492.1     -1087553.6     -360.30869    
    527000   527            298.49463      329.52635      298.26633      0.04173141    -1087493.9     -1087554.4     -614.17161    
    527500   527.5          301.57274      260.40039      302.32658      0.045711734   -1087493.7     -1087554.9     -204.60903    
    528000   528            293.5459       313.89906      293.45936      0.043263386   -1087493.4     -1087552.9      206.92899    
    528500   528.5          294.73634      414.89239      293.29579      0.038925538   -1087493.9     -1087553.7     -380.90305    
    529000   529            295.91287      313.52101      295.86512      0.037313445   -1087494.9     -1087554.9     -185.89392    
    529500   529.5          301.81866      265.21394      302.51066      0.036532759   -1087492.2     -1087553.4     -144.62179    
    530000   530            297.2942       347.96915      296.79848      0.033604778   -1087495.4     -1087555.7     -504.81468    
    530500   530.5          299.76939      415.04235      298.39838      0.034561327   -1087493.6     -1087554.4     -582.17668    
    531000   531            311.73146      331.47402      311.66497      0.038766825   -1087492.5     -1087555.7     -357.88809    
    531500   531.5          301.27437      422.76942      299.81986      0.038754404   -1087491.1     -1087552.2     -296.67132    
    532000   532            305.33009      347.9464       304.94896      0.032505761   -1087495.1     -1087557.1     -21.266602    
    532500   532.5          302.75627      358.33359      302.19753      0.037800115   -1087494.7     -1087556.1     -62.415136    
    533000   533            303.01291      332.09822      302.81396      0.038667077   -1087492.6     -1087554        16.944265    
    533500   533.5          299.91396      270.35683      300.50905      0.031010817   -1087492.4     -1087553.2     -46.240377    
    534000   534            296.59151      322.98758      296.42491      0.03113812    -1087495.2     -1087555.3     -1.6710936    
    534500   534.5          298.6047       275.79322      299.10738      0.026875382   -1087495.9     -1087556.4     -174.06477    
    535000   535            294.20629      328.97486      293.9245       0.033017333   -1087494.8     -1087554.5     -320.56282    
    535500   535.5          292.87151      317.59965      292.72515      0.028926104   -1087495.1     -1087554.5     -195.50895    
    536000   536            290.72252      300.32063      290.78015      0.031256971   -1087492.6     -1087551.6     -404.97609    
    536500   536.5          288.46785      222.12708      289.55488      0.03818642    -1087496       -1087554.6     -459.03222    
    537000   537            305.76962      267.05753      306.49278      0.035224292   -1087489.7     -1087551.7     -423.52446    
    537500   537.5          299.03555      340.76773      298.66235      0.035360688   -1087490.9     -1087551.6      132.7119     
    538000   538            294.11288      325.87658      293.87182      0.038356976   -1087493.5     -1087553.2     -122.83889    
    538500   538.5          302.16577      236.60832      303.25101      0.034316683   -1087491.3     -1087552.6     -220.5223     
    539000   539            309.58989      278.82524      310.20763      0.030701596   -1087490.5     -1087553.3      200.32751    
    539500   539.5          296.58073      284.90184      296.93098      0.033944441   -1087491.3     -1087551.4     -501.66386    
    540000   540            306.6855       280.42326      307.24025      0.031032228   -1087494.3     -1087556.5     -287.88104    
    540500   540.5          296.58364      330.25287      296.3183       0.028505325   -1087494.2     -1087554.4     -241.33857    
    541000   541            309.08972      359.27736      308.60823      0.030058093   -1087492.6     -1087555.3      93.567597    
    541500   541.5          300.14705      372.10059      299.36432      0.031882326   -1087495.8     -1087556.7     -543.9182     
    542000   542            305.57532      255.56228      306.45176      0.03494429    -1087493.7     -1087555.7      177.02117    
    542500   542.5          296.06269      406.5781       294.75386      0.036740063   -1087493       -1087553       -0.29435449   
    543000   543            306.07585      235.27014      307.23486      0.042226197   -1087490.3     -1087552.3     -360.49654    
    543500   543.5          307.46105      250.21036      308.43695      0.04724726    -1087494.1     -1087556.5     -305.48191    
    544000   544            308.62459      284.65045      309.14952      0.033994879   -1087491.6     -1087554.2     -346.08694    
    544500   544.5          296.20223      385.02774      295.18792      0.036779133   -1087494.7     -1087554.8      404.72411    
    545000   545            296.45187      301.49875      296.57499      0.032279898   -1087495.1     -1087555.2     -256.04274    
    545500   545.5          306.51548      343.05498      306.2176       0.027204066   -1087489.1     -1087551.2      49.035665    
    546000   546            303.97755      257.83756      304.80038      0.031414324   -1087495.2     -1087556.8     -70.61343     
    546500   546.5          303.76214      368.05034      303.08581      0.03713725    -1087493.4     -1087555       -560.52464    
    547000   547            296.97023      374.96459      296.10345      0.032770561   -1087493.6     -1087553.8     -135.00622    
    547500   547.5          307.23571      334.49199      307.06431      0.040985164   -1087490.7     -1087553       -146.56681    
    548000   548            309.13772      297.57381      309.49452      0.038926604   -1087492       -1087554.7     -413.08738    
    548500   548.5          297.3925       329.97161      297.14248      0.038466004   -1087496.3     -1087556.6      67.543693    
    549000   549            305.93594      291.98397      306.3231       0.03786034    -1087493.3     -1087555.4     -562.52431    
    549500   549.5          297.51496      285.24635      297.87382      0.032488594   -1087492.5     -1087552.9     -38.618264    
    550000   550            296.01724      278.13901      296.45128      0.04125523    -1087492.9     -1087553       -64.04911     
    550500   550.5          294.29741      254.86135      295.02298      0.031720277   -1087492.7     -1087552.4     -388.71601    
    551000   551            311.28197      285.76958      311.82951      0.047856547   -1087492.8     -1087556       -137.12658    
    551500   551.5          303.59116      352.41166      303.12468      0.037296156   -1087495.9     -1087557.4     -236.92969    
    552000   552            302.18598      323.93033      302.08615      0.034326397   -1087493.3     -1087554.6     -307.56386    
    552500   552.5          298.5719       279.57009      299.02285      0.040549662   -1087496.5     -1087557       -130.68767    
    553000   553            307.51194      290.37361      307.94336      0.035223788   -1087495.6     -1087558        382.41636    
    553500   553.5          302.62926      324.33646      302.53021      0.033931462   -1087494.3     -1087555.7     -631.95575    
    554000   554            304.59862      317.51756      304.62015      0.038446156   -1087493.6     -1087555.4     -239.067      
    554500   554.5          302.23495      260.07444      303.00263      0.038584157   -1087491.7     -1087553       -165.90706    
    555000   555            303.04006      364.74024      302.39839      0.044657295   -1087494.2     -1087555.7     -386.60818    
    555500   555.5          302.04593      353.30397      301.54537      0.039714853   -1087495.5     -1087556.8      74.296476    
    556000   556            301.6234       223.63174      302.87709      0.038850165   -1087492.9     -1087554.1      107.57655    
    556500   556.5          297.71626      360.4927       297.05654      0.03726724    -1087496.1     -1087556.5      334.99882    
    557000   557            307.81232      297.27753      308.1543       0.038667351   -1087491.9     -1087554.3     -137.49196    
    557500   557.5          298.99441      265.01877      299.6489       0.040163688   -1087495.9     -1087556.5     -363.75374    
    558000   558            309.22931      298.60775      309.57338      0.038717989   -1087495       -1087557.7     -871.16907    
    558500   558.5          311.03976      318.12483      311.14465      0.040349465   -1087494.5     -1087557.6      222.50067    
    559000   559            301.26701      370.58821      300.52074      0.038043815   -1087495.4     -1087556.5      25.087044    
    559500   559.5          304.60479      329.80365      304.45962      0.039199548   -1087494.7     -1087556.5      27.027355    
    560000   560            300.10713      327.61586      299.9277       0.03846172    -1087499.2     -1087560.1     -268.84098    
    560500   560.5          293.99182      266.15095      294.55979      0.039747227   -1087502.4     -1087562       -268.46632    
    561000   561            303.19786      346.38548      302.8076       0.031456111   -1087497.6     -1087559.1     -92.515537    
    561500   561.5          295.5268       276.63253      295.97432      0.034649999   -1087498.7     -1087558.7      549.36421    
    562000   562            298.84113      312.12183      298.85402      0.038459018   -1087499.4     -1087560       -461.62872    
    562500   562.5          310.4359       301.98201      310.75133      0.037868418   -1087495.7     -1087558.6     -524.79956    
    563000   563            306.58871      313.15354      306.69777      0.041064388   -1087493.4     -1087555.6     -582.088      
    563500   563.5          302.22028      318.86051      302.18975      0.040374237   -1087495.6     -1087556.9     -459.88741    
    564000   564            295.39705      313.3515       295.34427      0.032427283   -1087499.4     -1087559.3     -258.88742    
    564500   564.5          296.95411      269.51415      297.51855      0.038498518   -1087499.7     -1087559.9      81.366469    
    565000   565            296.69964      204.53617      298.14252      0.042202341   -1087497.5     -1087557.6     -467.17983    
    565500   565.5          303.63092      281.42365      304.12865      0.043009833   -1087494.4     -1087556       -9.3695544    
    566000   566            296.55126      298.52177      296.7162       0.037433968   -1087500.4     -1087560.5      69.314764    
    566500   566.5          300.29306      222.65472      301.54109      0.040947981   -1087498.5     -1087559.4     -236.63506    
    567000   567            297.35684      218.20985      298.62345      0.034717407   -1087497       -1087557.3     -431.06374    
    567500   567.5          294.27618      331.13835      293.96601      0.041762927   -1087499.1     -1087558.8     -479.359      
    568000   568            305.56797      318.84429      305.58527      0.040426025   -1087491.1     -1087553.1      0.458774     
    568500   568.5          298.25982      244.21487      299.18626      0.042665325   -1087495.5     -1087556       -497.17191    
    569000   569            298.73854      302.71885      298.87762      0.042077985   -1087495.2     -1087555.8     -123.13796    
    569500   569.5          302.15117      292.32405      302.47989      0.039698181   -1087492.4     -1087553.7     -268.76811    
    570000   570            302.95321      283.86783      303.40812      0.039873644   -1087494.5     -1087556       -502.96792    
    570500   570.5          301.42344      259.21846      302.19121      0.045458371   -1087493.1     -1087554.2     -685.52944    
    571000   571            307.60846      258.49271      308.47403      0.043766163   -1087493.1     -1087555.5     -370.24032    
    571500   571.5          308.58676      404.24946      307.48764      0.03818872    -1087493.4     -1087556       -458.7392     
    572000   572            298.22958      248.22916      299.1011       0.039500942   -1087494.5     -1087555       -355.17265    
    572500   572.5          304.58038      303.91234      304.78634      0.037035531   -1087495.9     -1087557.6      99.956038    
    573000   573            300.59528      187.6339       302.323        0.042939624   -1087491.7     -1087552.6     -435.36976    
    573500   573.5          297.99827      386.46859      296.98994      0.039397285   -1087495.4     -1087555.8     -517.40302    
    574000   574            304.14646      335.91056      303.91187      0.041862027   -1087492.5     -1087554.1     -159.1666     
    574500   574.5          292.7575       262.9035       293.352        0.041938419   -1087499.6     -1087559       -476.27222    
    575000   575            303.27446      340.94143      302.95919      0.036540241   -1087496.7     -1087558.2     -340.03671    
    575500   575.5          300.55487      277.54478      301.0615       0.038107358   -1087497       -1087557.9     -660.86535    
    576000   576            301.54345      287.92406      301.92325      0.033439332   -1087492.4     -1087553.5     -220.91524    
    576500   576.5          309.13909      347.70127      308.81545      0.038310664   -1087495.3     -1087558       -162.39898    
    577000   577            304.74263      359.58661      304.19513      0.036092736   -1087497.4     -1087559.3      50.522574    
    577500   577.5          289.79516      195.92527      291.25674      0.037064256   -1087496       -1087554.8     -261.40678    
    578000   578            284.41694      263.20491      284.88873      0.035834841   -1087499.2     -1087556.9     -193.37125    
    578500   578.5          300.69178      255.61986      301.49799      0.030527199   -1087494.5     -1087555.5     -635.30093    
    579000   579            306.10541      286.99404      306.56271      0.035636342   -1087495.4     -1087557.5      207.10795    
    579500   579.5          293.6036       342.15933      293.13427      0.035137948   -1087494.9     -1087554.4     -488.56076    
    580000   580            300.64954      314.76564      300.65226      0.029057648   -1087492.9     -1087553.9     -12.606082    
    580500   580.5          301.02783      241.89241      302.02516      0.037450279   -1087491.1     -1087552.2     -166.03876    
    581000   581            308.809        189.74453      310.62488      0.031916982   -1087494.4     -1087557       -191.99993    
    581500   581.5          303.69399      225.61741      304.95016      0.025440163   -1087493       -1087554.6     -470.71674    
    582000   582            308.8988       323.91612      308.89462      0.035074812   -1087491.7     -1087554.3      31.159768    
    582500   582.5          297.51963      296.77238      297.7221       0.036362589   -1087496.6     -1087557        66.279053    
    583000   583            300.41472      194.79251      302.0427       0.026424018   -1087494.6     -1087555.5     -329.63729    
    583500   583.5          294.98379      435.13947      293.27191      0.031841981   -1087495.2     -1087555       -774.24293    
    584000   584            303.9169       261.66905      304.68686      0.029556973   -1087492.8     -1087554.4     -47.451509    
    584500   584.5          308.68024      239.88504      309.81364      0.033242681   -1087491.9     -1087554.5     -503.2296     
    585000   585            295.01322      173.23701      296.85699      0.030765534   -1087496.8     -1087556.7     -466.24358    
    585500   585.5          295.68989      248.04056      296.52785      0.023981312   -1087493.5     -1087553.5     -859.73061    
    586000   586            298.87842      301.6898       299.03346      0.023137822   -1087494       -1087554.6     -262.56959    
    586500   586.5          301.04271      342.2916       300.67736      0.028298241   -1087496.2     -1087557.2     -363.65078    
    587000   587            290.31534      241.84676      291.16095      0.030556369   -1087498.8     -1087557.6     -399.06876    
    587500   587.5          302.7449       330.88813      302.55856      0.032897635   -1087495.8     -1087557.2     -375.46933    
    588000   588            307.7402       251.67137      308.70024      0.0399968     -1087497.2     -1087559.6     -46.5064      
    588500   588.5          298.25998      386.05291      297.26102      0.036950606   -1087496.7     -1087557.2     -873.43532    
    589000   589            302.06612      219.71258      303.3793       0.035708934   -1087491.6     -1087552.9     -249.13745    
    589500   589.5          308.2958       297.01238      308.64825      0.033444335   -1087494.6     -1087557.1      224.32994    
    590000   590            311.72244      274.77472      312.42549      0.028771335   -1087494.5     -1087557.7     -98.036754    
    590500   590.5          301.372        403.04139      300.18668      0.031018188   -1087497.5     -1087558.6     -356.90541    
    591000   591            300.38731      390.56767      299.35732      0.038773831   -1087498.8     -1087559.7     -59.361727    
    591500   591.5          295.27116      364.08628      294.52788      0.042762346   -1087496.9     -1087556.8     -437.37053    
    592000   592            289.01652      321.32136      288.76482      0.03927568    -1087496.4     -1087555        320.5589     
    592500   592.5          297.13453      280.90381      297.54693      0.038779139   -1087494.9     -1087555.2     -321.47956    
    593000   593            289.44193      450.50399      287.44267      0.036387412   -1087501       -1087559.7     -417.25753    
    593500   593.5          288.49362      245.19858      289.26782      0.036261834   -1087497.2     -1087555.7     -359.8829     
    594000   594            294.18481      306.64185      294.20588      0.036108896   -1087495.4     -1087555.1     -302.62637    
    594500   594.5          296.66016      264.81251      297.28424      0.038569274   -1087497.3     -1087557.5     -584.27989    
    595000   595            303.42311      342.81297      303.08455      0.032094549   -1087495.3     -1087556.8      175.96108    
    595500   595.5          294.44837      208.75051      295.80202      0.033462037   -1087497.1     -1087556.9     -535.90191    
    596000   596            308.16452      325.88177      308.12321      0.035281556   -1087493.7     -1087556.2     -957.43646    
    596500   596.5          305.85485      338.03631      305.61571      0.036669704   -1087492.1     -1087554.1     -117.16062    
    597000   597            319.03655      262.62646      320.00853      0.036298853   -1087491.3     -1087556       -73.722174    
    597500   597.5          302.47771      279.12254      302.99027      0.044392994   -1087497.3     -1087558.7     -918.62224    
    598000   598            305.32503      356.9093       304.82216      0.036924401   -1087495.5     -1087557.4     -85.000308    
    598500   598.5          300.22249      284.03134      300.63635      0.037456396   -1087493.7     -1087554.6     -543.82912    
    599000   599            299.57102      309.5069       299.6298       0.029023704   -1087492.5     -1087553.3     -206.56682    
    599500   599.5          300.61526      309.75443      300.68552      0.029652891   -1087495.9     -1087556.8     -340.44784    
    600000   600            300.1566       287.16448      300.52699      0.042642901   -1087494.7     -1087555.6     -548.75818    
    600500   600.5          295.77389      345.45414      295.29069      0.041202652   -1087495.8     -1087555.8      2.5027704    
    601000   601            299.31979      303.54479      299.45592      0.042260938   -1087495.4     -1087556.1      154.0436     
    601500   601.5          293.77767      297.65717      293.91491      0.04313626    -1087494       -1087553.6     -772.20833    
    602000   602            312.40209      291.44753      312.88849      0.040119831   -1087490.5     -1087553.8      84.964666    
    602500   602.5          297.53642      219.96797      298.78171      0.043143026   -1087496.4     -1087556.7      40.112014    
    603000   603            300.87566      340.59971      300.53091      0.042860833   -1087493.7     -1087554.7     -65.59139     
    603500   603.5          290.98709      291.74593      291.16489      0.041291633   -1087497.3     -1087556.3     -621.25007    
    604000   604            283.20469      342.74401      282.57953      0.044284967   -1087499.8     -1087557.3     -25.552095    
    604500   604.5          293.04235      253.86446      293.7636       0.048529061   -1087494.8     -1087554.2     -312.78621    
    605000   605            301.30174      311.85994      301.35318      0.04577296    -1087494.5     -1087555.6     -729.70369    
    605500   605.5          290.99825      236.11423      291.93139      0.049719393   -1087497.2     -1087556.2     -42.039305    
    606000   606            308.99195      283.61998      309.5361       0.049680745   -1087489.4     -1087552.1     -268.31722    
    606500   606.5          296.96818      290.53183      297.24752      0.050261853   -1087493.3     -1087553.5     -561.02727    
    607000   607            290.67255      284.75376      290.94079      0.04652562    -1087496.5     -1087555.5     -69.56642     
    607500   607.5          296.97767      388.20152      295.93131      0.053376304   -1087495.2     -1087555.5     -505.87074    
    608000   608            299.18018      271.30787      299.75193      0.048358716   -1087492.9     -1087553.6     -20.54988     
    608500   608.5          298.66597      313.98519      298.65108      0.047558244   -1087490.2     -1087550.7      62.116433    
    609000   609            293.41339      237.83115      294.35756      0.046058925   -1087493.1     -1087552.6     -18.188013    
    609500   609.5          297.82139      309.91993      297.84967      0.047913591   -1087493.9     -1087554.3     -266.70305    
    610000   610            302.5361       338.35928      302.24537      0.052213179   -1087491.8     -1087553.2     -94.643464    
    610500   610.5          314.36878      241.23223      315.5648       0.047492011   -1087489.1     -1087552.9      2.2446239    
    611000   611            304.79756      197.01861      306.45765      0.050465006   -1087493.1     -1087554.9     -427.51213    
    611500   611.5          303.54011      270.57313      304.18384      0.047066406   -1087494.1     -1087555.6      126.47128    
    612000   612            296.21456      256.91603      296.9395       0.04832191    -1087495.1     -1087555.2      138.47087    
    612500   612.5          291.16879      252.96267      291.87564      0.041386674   -1087497.7     -1087556.8      327.02373    
    613000   613            300.79698      289.10778      301.15009      0.044519967   -1087494.2     -1087555.2      103.07307    
    613500   613.5          305.16907      280.64906      305.69919      0.044898988   -1087494.7     -1087556.6      173.99227    
    614000   614            300.70448      246.50276      301.63463      0.044143047   -1087493.1     -1087554.1     -844.64676    
    614500   614.5          302.35821      262.43654      303.09558      0.042329341   -1087494.6     -1087555.9      54.603954    
    615000   615            294.11674      185.59432      295.78002      0.048189614   -1087499.7     -1087559.3     -235.01518    
    615500   615.5          301.97421      249.84386      302.87707      0.040960351   -1087493.2     -1087554.4     -41.220068    
    616000   616            299.9207       311.36296      299.95925      0.043517874   -1087494.9     -1087555.7     -953.55476    
    616500   616.5          298.85157      307.19094      298.93154      0.050226788   -1087491.1     -1087551.7     -555.28429    
    617000   617            302.06377      398.89401      300.94459      0.053701919   -1087489.3     -1087550.5     -31.731846    
    617500   617.5          285.39208      264.70196      285.85743      0.047240916   -1087499.8     -1087557.7      109.50004    
    618000   618            297.56982      360.51957      296.90765      0.05037127    -1087493.8     -1087554.2      143.55573    
    618500   618.5          290.88573      275.62191      291.28096      0.053453485   -1087493.4     -1087552.4      86.889648    
    619000   619            325.78718      333.83017      325.88859      0.053869079   -1087486.5     -1087552.6     -194.01655    
    619500   619.5          293.28438      311.61617      293.22511      0.052715972   -1087494.1     -1087553.6     -148.77448    
    620000   620            299.81157      277.4473       300.30896      0.04990769    -1087495.7     -1087556.5      187.47885    
    620500   620.5          296.20094      389.43608      295.12678      0.048806692   -1087499.8     -1087559.9     -278.46098    
    621000   621            291.27446      258.67723      291.90524      0.045870651   -1087496.7     -1087555.7     -624.57686    
    621500   621.5          308.18784      228.18335      309.47309      0.045252814   -1087497.2     -1087559.7     -400.28339    
    622000   622            290.02667      398.02571      288.7481       0.043110762   -1087499.5     -1087558.3     -855.28385    
    622500   622.5          301.42607      359.46662      300.83303      0.04220196    -1087494.5     -1087555.6     -618.5853     
    623000   623            300.10849      327.29808      299.93339      0.045010114   -1087495.3     -1087556.1      176.01137    
    623500   623.5          308.18162      279.22873      308.77386      0.044538069   -1087497.8     -1087560.3     -315.96686    
    624000   624            294.89475      234.81375      295.90095      0.048915298   -1087499       -1087558.8      243.31031    
    624500   624.5          298.85794      305.01477      298.96755      0.047801189   -1087497.5     -1087558.1     -837.50123    
    625000   625            292.40049      367.46685      291.5705       0.048526202   -1087495.9     -1087555.2      36.312015    
    625500   625.5          301.83083      243.40624      302.81903      0.043990719   -1087491.9     -1087553.2     -529.11234    
    626000   626            297.39305      299.40399      297.55799      0.047665856   -1087499.4     -1087559.7     -545.17182    
    626500   626.5          296.58836      335.93834      296.24592      0.04262888    -1087498.3     -1087558.5     -91.76346     
    627000   627            294.28837      324.95213      294.06235      0.040728269   -1087496.6     -1087556.3     -44.827055    
    627500   627.5          296.6639       279.87052      297.08364      0.044492828   -1087491.8     -1087552        33.847925    
    628000   628            297.42325      254.08607      298.20379      0.039577736   -1087494.4     -1087554.7     -53.257022    
    628500   628.5          302.7911       248.1882       303.72804      0.040283885   -1087491.8     -1087553.2     -235.66813    
    629000   629            291.39037      296.92887      291.50355      0.033872868   -1087496.1     -1087555.2     -862.8789     
    629500   629.5          306.44851      287.84726      306.89911      0.03878804    -1087495.6     -1087557.7     -1269.8364    
    630000   630            295.68759      319.01107      295.56212      0.041134974   -1087495.1     -1087555.1     -263.27624    
    630500   630.5          292.14902      310.44331      292.08953      0.038033922   -1087491.8     -1087551.1     -166.20539    
    631000   631            308.56702      338.60429      308.35873      0.039846198   -1087493.2     -1087555.8     -732.59157    
    631500   631.5          299.8064       247.12699      300.7153       0.036938594   -1087499.2     -1087560       -586.80628    
    632000   632            304.75563      246.98502      305.73684      0.040705874   -1087495.7     -1087557.5     -378.27993    
    632500   632.5          321.60065      309.26862      321.97594      0.044306045   -1087493.7     -1087558.9      371.25827    
    633000   633            309.31522      390.54025      308.41257      0.044156494   -1087494.9     -1087557.6     -168.30465    
    633500   633.5          297.62786      281.14845      298.04395      0.04401869    -1087496.7     -1087557        24.156542    
    634000   634            295.70101      256.00166      296.43106      0.044893257   -1087495.2     -1087555.1     -180.60493    
    634500   634.5          299.69532      329.09475      299.48996      0.039950177   -1087492.6     -1087553.3     -105.19985    
    635000   635            300.0174       271.59443      300.59717      0.039685143   -1087496.7     -1087557.6     -567.04016    
    635500   635.5          298.41059      393.02392      297.31914      0.032276045   -1087495.8     -1087556.4      61.585286    
    636000   636            304.89519      393.87576      303.8844       0.037863332   -1087494.3     -1087556.2      116.73438    
    636500   636.5          300.06191      279.41161      300.5362       0.038979934   -1087494.1     -1087554.9      140.72932    
    637000   637            303.62584      225.53966      304.8821       0.033662179   -1087494.3     -1087555.9      66.40701     
    637500   637.5          304.46334      273.13199      305.08546      0.028953082   -1087494       -1087555.8     -685.2521     
    638000   638            305.7196       231.98511      306.91814      0.039206161   -1087495.5     -1087557.6     -629.9717     
    638500   638.5          297.89952      282.34973      298.30316      0.034002218   -1087496.2     -1087556.6     -554.12676    
    639000   639            300.97064      284.32073      301.39121      0.033078498   -1087494.8     -1087555.9     -403.08873    
    639500   639.5          299.6864       412.46331      298.34922      0.035352998   -1087497.1     -1087557.9     -392.14827    
    640000   640            300.67063      367.93909      299.95184      0.034898274   -1087496.5     -1087557.5     -226.36719    
    640500   640.5          306.4673       300.21355      306.7503       0.034776824   -1087495.2     -1087557.3     -195.95499    
    641000   641            301.94555      274.49484      302.51337      0.037169876   -1087496.9     -1087558.1      201.8901     
    641500   641.5          308.21981      327.5451       308.15671      0.035486073   -1087493.1     -1087555.6     -570.36138    
    642000   642            315.55486      325.42317      315.62488      0.035418107   -1087492.8     -1087556.8     -331.72855    
    642500   642.5          299.67921      253.67565      300.4974       0.028587813   -1087494.1     -1087554.8     -287.57332    
    643000   643            303.76408      326.6691       303.64951      0.03152141    -1087493.8     -1087555.4     -345.38184    
    643500   643.5          295.10429      272.73778      295.59867      0.039823907   -1087492.2     -1087552.1     -199.11193    
    644000   644            297.56397      266.67451      298.17564      0.033121609   -1087491.4     -1087551.8     -327.54001    
    644500   644.5          303.30348      327.60177      303.1697       0.029181165   -1087490       -1087551.5     -25.93705     
    645000   645            297.2181       232.62304      298.28708      0.029122857   -1087490.5     -1087550.8     -257.82518    
    645500   645.5          291.70488      285.99615      291.97094      0.03121769    -1087495.1     -1087554.2     -253.79447    
    646000   646            297.11843      273.48645      297.63129      0.027823891   -1087494.7     -1087554.9     -487.42265    
    646500   646.5          312.01877      221.13946      313.45411      0.028983717   -1087490       -1087553.3     -373.18254    
    647000   647            306.44607      365.12184      305.84765      0.033291356   -1087496.2     -1087558.3      123.69832    
    647500   647.5          302.07501      351.00355      301.60608      0.02436491    -1087497.3     -1087558.6     -308.57042    
    648000   648            295.51035      302.01336      295.6131       0.032327223   -1087498.6     -1087558.5      177.53387    
    648500   648.5          294.68874      334.79992      294.33473      0.038159591   -1087500.5     -1087560.3      554.14621    
    649000   649            311.79767      422.01713      310.50303      0.033096807   -1087493.3     -1087556.5      75.94554     
    649500   649.5          306.60553      242.48422      307.67415      0.038791909   -1087497       -1087559.2      257.30025    
    650000   650            293.76274      251.92864      294.52052      0.032121341   -1087495.2     -1087554.8     -57.623021    
    650500   650.5          299.66082      379.12283      298.77585      0.034148097   -1087495.2     -1087556       -395.73157    
    651000   651            304.78335      346.21751      304.41791      0.036171929   -1087494.1     -1087555.9      84.90593     
    651500   651.5          301.92337      300.68447      302.13536      0.032853884   -1087494.7     -1087556        341.26285    
    652000   652            286.91848      263.53314      287.4214       0.037965495   -1087496.3     -1087554.5      78.387059    
    652500   652.5          298.73024      245.38791      299.64745      0.032455534   -1087495.4     -1087556       -168.5977     
    653000   653            297.97116      250.02269      298.81466      0.031147347   -1087492.2     -1087552.7      336.04566    
    653500   653.5          294.35497      290.30483      294.60022      0.033646127   -1087493.9     -1087553.6     -398.47042    
    654000   654            303.22273      336.78786      302.9631       0.030748417   -1087493.8     -1087555.3     -216.75967    
    654500   654.5          302.57319      311.4582       302.64816      0.03029007    -1087496.8     -1087558.2     -249.09215    
    655000   655            300.75235      243.90033      301.71851      0.036171469   -1087492.7     -1087553.7     -50.820563    
    655500   655.5          304.45989      198.65591      306.09295      0.039442751   -1087494.1     -1087555.9      139.49994    
    656000   656            306.91306      337.60791      306.69478      0.031371005   -1087495       -1087557.3     -665.28999    
    656500   656.5          308.97863      297.08858      309.33976      0.036956024   -1087492.8     -1087555.5      61.98157     
    657000   657            299.96276      290.52212      300.28481      0.041279592   -1087495.8     -1087556.7     -767.24418    
    657500   657.5          295.24531      257.30626      295.95117      0.038929804   -1087497.7     -1087557.6     -307.70878    
    658000   658            301.4177       329.51478      301.23113      0.040361274   -1087496.5     -1087557.6     -491.17086    
    658500   658.5          301.53608      325.99118      301.39902      0.03970204    -1087493.7     -1087554.9      13.837786    
    659000   659            294.52766      326.62463      294.28234      0.042185875   -1087497.4     -1087557.2      180.73615    
    659500   659.5          301.61524      316.45141      301.60881      0.032118255   -1087493.1     -1087554.2      19.828867    
    660000   660            302.66075      313.30011      302.71196      0.025525122   -1087494.6     -1087556       -384.86485    
    660500   660.5          286.37457      227.34665      287.36097      0.033034587   -1087497.2     -1087555.3      619.94039    
    661000   661            305.5173       293.88096      305.87275      0.026395151   -1087492.6     -1087554.6     -771.15627    
    661500   661.5          297.47752      260.57577      298.17074      0.031932766   -1087498.7     -1087559        9.7283219    
    662000   662            305.05412      392.11427      304.0695       0.030991963   -1087494.3     -1087556.1     -420.63371    
    662500   662.5          286.98945      378.34541      285.93484      0.027293079   -1087494.4     -1087552.6      345.86576    
    663000   663            296.71603      193.49909      298.30897      0.025277897   -1087498.2     -1087558.4     -108.68063    
    663500   663.5          290.2478       264.00072      290.79172      0.027943212   -1087497.1     -1087556        14.221221    
    664000   664            298.5788       247.44025      299.46599      0.035709154   -1087492.5     -1087553.1     -410.83819    
    664500   664.5          295.25602      328.26158      294.99884      0.031155634   -1087494.5     -1087554.4     -390.80205    
    665000   665            286.4501       211.88999      287.64739      0.032839269   -1087496.2     -1087554.3      122.46542    
    665500   665.5          302.85706      345.95273      302.46782      0.031834715   -1087492.3     -1087553.7     -219.04164    
    666000   666            295.89422      268.70223      296.45461      0.027963331   -1087493.7     -1087553.7      7.793551     
    666500   666.5          298.69174      357.98943      298.07988      0.023512222   -1087488.4     -1087549       -341.10749    
    667000   667            297.05435      347.01236      296.56821      0.034082377   -1087492.8     -1087553.1     -666.79242    
    667500   667.5          304.25742      426.23044      302.79835      0.03438916    -1087493.9     -1087555.7      330.48561    
    668000   668            298.33001      391.42051      297.25918      0.035060756   -1087495.2     -1087555.7     -552.76653    
    668500   668.5          304.4137       282.73891      304.90471      0.029739501   -1087492.4     -1087554.2     -151.08448    
    669000   669            307.17978      302.04904      307.44799      0.032384877   -1087492.5     -1087554.8     -353.47211    
    669500   669.5          311.30147      271.62461      312.0413       0.029129702   -1087489.2     -1087552.3      197.19799    
    670000   670            301.18222      300.23118      301.38982      0.034337741   -1087495       -1087556.1     -439.59796    
    670500   670.5          294.12783      233.54506      295.14035      0.024477126   -1087494.3     -1087554       -241.93469    
    671000   671            300.61141      377.72648      299.75892      0.020874933   -1087493       -1087554       -196.75042    
    671500   671.5          285.69662      249.40945      286.37388      0.020785947   -1087496.5     -1087554.4     -71.715974    
    672000   672            297.1269       312.20795      297.11425      0.015174186   -1087498.3     -1087558.5     -342.73673    
    672500   672.5          302.4456       294.49405      302.74904      0.023548309   -1087493.1     -1087554.4     -73.796073    
    673000   673            292.34115      265.94042      292.8885       0.026605615   -1087496.3     -1087555.6     -88.556288    
    673500   673.5          294.85492      320.48595      294.69759      0.024404874   -1087494.8     -1087554.6     -122.43286    
    674000   674            296.20873      314.84948      296.14716      0.023967515   -1087493.6     -1087553.6     -371.81979    
    674500   674.5          303.10927      268.9432       303.76899      0.021098935   -1087491       -1087552.4     -127.3238     
    675000   675            305.48613      339.59375      305.2206       0.020012204   -1087489.8     -1087551.8     -561.20018    
    675500   675.5          304.05336      268.12457      304.73762      0.015512126   -1087492.9     -1087554.5     -11.481908    
    676000   676            290.80041      293.67763      290.94933      0.024496726   -1087496       -1087555       -197.83636    
    676500   676.5          309.48088      372.56024      308.82465      0.023815909   -1087495.4     -1087558.1     -352.49695    
    677000   677            301.8771       292.75287      302.1961       0.018114471   -1087493.3     -1087554.5      34.178943    
    677500   677.5          295.94702      309.72398      295.9513       0.021150876   -1087493.6     -1087553.6      539.21117    
    678000   678            302.72529      279.6565       303.23413      0.023971049   -1087495.3     -1087556.7     -11.18615     
    678500   678.5          302.11653      277.25962      302.64925      0.023980213   -1087491.1     -1087552.4     -68.498392    
    679000   679            311.79697      277.72329      312.46106      0.020632544   -1087491.9     -1087555.1     -790.41633    
    679500   679.5          309.57021      400.33846      308.53818      0.013685957   -1087491       -1087553.8     -241.39732    
    680000   680            294.96851      279.641        295.36725      0.025473846   -1087493.2     -1087553        156.45758    
    680500   680.5          305.14487      357.95203      304.62528      0.015075517   -1087494.3     -1087556.2      48.549809    
    681000   681            292.29128      263.37205      292.87279      0.020330174   -1087495       -1087554.2     -130.96069    
    681500   681.5          300.53511      321.43226      300.44571      0.018016074   -1087493       -1087553.9      289.6659     
    682000   682            296.62154      338.0667       296.25067      0.015472949   -1087495.1     -1087555.2     -838.77488    
    682500   682.5          308.4357       257.92789      309.3207       0.018862547   -1087490.6     -1087553.2      13.756612    
    683000   683            294.89546      252.86332      295.65665      0.018824413   -1087494.6     -1087554.4     -216.94043    
    683500   683.5          301.23623      278.58313      301.73846      0.014463923   -1087495.7     -1087556.8     -230.23267    
    684000   684            304.85248      315.20889      304.90896      0.022396117   -1087493.3     -1087555.1     -298.93325    
    684500   684.5          297.51391      311.04456      297.52255      0.018457373   -1087495.4     -1087555.8     -525.6464     
    685000   685            285.1562       303.02385      285.09798      0.022576886   -1087494       -1087551.9     -661.10764    
    685500   685.5          299.01096      280.23239      299.45915      0.019799272   -1087493.8     -1087554.5     -186.79842    
    686000   686            295.76816      348.62843      295.24178      0.026049389   -1087495.7     -1087555.7      373.00364    
    686500   686.5          291.76305      346.55903      291.20781      0.020800982   -1087497.5     -1087556.7      219.66548    
    687000   687            294.27511      372.74687      293.4001       0.019645632   -1087492.5     -1087552.2     -1002.0643    
    687500   687.5          299.84493      290.52058      300.16533      0.023917261   -1087493.3     -1087554.1     -433.7128     
    688000   688            286.65461      244.70966      287.40929      0.024122882   -1087494.5     -1087552.7     -167.85339    
    688500   688.5          309.35608      297.97759      309.71051      0.017870667   -1087490.5     -1087553.3     -62.36666     
    689000   689            309.37477      272.30761      310.07793      0.023840799   -1087491       -1087553.8     -251.79761    
    689500   689.5          308.85566      318.76511      308.92079      0.022727973   -1087490.6     -1087553.2      121.54611    
    690000   690            291.25227      250.08012      291.99943      0.016852589   -1087493.5     -1087552.6     -347.32213    
    690500   690.5          296.90425      349.60977      296.38071      0.0170309     -1087491.2     -1087551.4      39.519141    
    691000   691            303.87748      358.51236      303.33226      0.022877461   -1087492.9     -1087554.5     -469.95957    
    691500   691.5          290.27492      295.06567      290.39753      0.012235953   -1087495.5     -1087554.4      80.191384    
    692000   692            290.34493      298.84795      290.41719      0.02303046    -1087495.5     -1087554.3      205.73275    
    692500   692.5          297.63105      275.08079      298.12956      0.014469686   -1087493.3     -1087553.7     -366.77539    
    693000   693            304.86593      287.87193      305.29369      0.019717346   -1087493.3     -1087555.1     -160.06968    
    693500   693.5          292.58687      257.97813      293.24581      0.017483798   -1087494.4     -1087553.7     -240.09987    
    694000   694            296.09911      313.71324      296.0514       0.016646342   -1087494.7     -1087554.8     -297.03388    
    694500   694.5          297.84244      311.2951       297.85235      0.017587984   -1087492.1     -1087552.5     -404.96605    
    695000   695            292.84312      311.25922      292.78243      0.015838539   -1087496.3     -1087555.7     -511.00191    
    695500   695.5          294.80029      381.19334      293.8181       0.015988582   -1087495.6     -1087555.4     -677.02058    
    696000   696            301.76729      332.12396      301.55027      0.012651745   -1087496.3     -1087557.5     -497.41294    
    696500   696.5          305.30772      290.45703      305.70666      0.021717402   -1087493.8     -1087555.8     -678.91738    
    697000   697            307.40541      295.52097      307.76545      0.018530115   -1087492.1     -1087554.5     -768.66305    
    697500   697.5          295.27564      322.05758      295.10295      0.018270803   -1087495.8     -1087555.7     -47.391807    
    698000   698            293.88108      289.2491       294.13393      0.017217482   -1087496.4     -1087556        117.78946    
    698500   698.5          294.20687      251.193        294.98095      0.015569653   -1087498.3     -1087557.9     -243.59834    
    699000   699            309.38305      375.52631      308.68517      0.015750263   -1087493.3     -1087556        366.55307    
    699500   699.5          295.57601      415.65312      294.13707      0.011507771   -1087496.3     -1087556.3      480.06981    
    700000   700            295.11167      345.58301      294.61731      0.010492321   -1087495.5     -1087555.3     -515.17613    
    700500   700.5          307.91228      231.81174      309.14435      0.013519332   -1087493.5     -1087555.9     -237.19114    
    701000   701            308.82885      338.48145      308.62596      0.017875626   -1087492.2     -1087554.8     -0.14637606   
    701500   701.5          296.65092      377.91557      295.73954      0.012754539   -1087495.9     -1087556        264.93961    
    702000   702            292.28733      361.78428      291.53287      0.015450254   -1087493.8     -1087553.1     -95.570899    
    702500   702.5          292.36142      320.28128      292.1714       0.0050778369  -1087496.9     -1087556.2     -354.84316    
    703000   703            304.22243      258.3193       305.04221      0.0096913535  -1087492.1     -1087553.8      278.94353    
    703500   703.5          311.03962      402.95406      309.99297      0.0035934282  -1087494.5     -1087557.6      25.601862    
    704000   704            293.85767      358.96912      293.16375      0.008061223   -1087492.5     -1087552        171.42625    
    704500   704.5          296.92526      303.95913      297.02171      0.0028521896  -1087497.6     -1087557.8     -422.45102    
    705000   705            293.73704      324.82168      293.50495      0.0034522367  -1087499       -1087558.6     -434.16186    
    705500   705.5          286.24452      240.42207      287.05157      0.0049100368  -1087494.7     -1087552.7      200.19767    
    706000   706            303.06232      312.15114      303.13485      0.005727479   -1087496.7     -1087558.2     -74.255798    
    706500   706.5          294.19056      240.93393      295.10367      0.0098367501  -1087493.9     -1087553.5     -244.68641    
    707000   707            300.94228      412.87008      299.61743      0.00526517    -1087494.3     -1087555.3     -553.36565    
    707500   707.5          299.01471      309.9305       299.05982      0.0085347092  -1087496.7     -1087557.4     -766.6841     
    708000   708            297.90382      258.89838      298.62588      0.0072927836  -1087496.3     -1087556.7     -572.81669    
    708500   708.5          291.79198      262.30773      292.38083      0.0064819806  -1087494.8     -1087554       -353.51457    
    709000   709            287.83346      274.5378       288.2          0.011283904   -1087496       -1087554.4     -798.85737    
    709500   709.5          309.37404      389.91679      308.48068      0.0087212685  -1087493.1     -1087555.8     -512.18536    
    710000   710            306.97146      315.2839       307.05706      0.0046067756  -1087495.1     -1087557.3     -159.29386    
    710500   710.5          296.62083      309.22273      296.64151      0.0052737751  -1087497.2     -1087557.4     -500.23637    
    711000   711            307.71527      284.72281      308.2263       0.0083290086  -1087492.2     -1087554.6     -254.05226    
    711500   711.5          289.95373      225.44902      291.01679      0.011257787   -1087494.4     -1087553.3      714.96592    
    712000   712            298.87246      279.7337       299.32546      0.011954086   -1087494.9     -1087555.6     -246.90522    
    712500   712.5          308.20967      330.59334      308.10505      0.007855283   -1087493.4     -1087555.9      610.11204    
    713000   713            303.6446       292.31617      303.99466      0.0089405244  -1087495       -1087556.6     -54.107631    
    713500   713.5          298.75022      363.74492      298.06105      0.0075363102  -1087494.6     -1087555.2     -754.16011    
    714000   714            295.89904      306.81625      295.94212      0.0068089653  -1087497.8     -1087557.8     -124.19334    
    714500   714.5          296.27201      371.58677      295.44116      0.00855561    -1087499       -1087559       -609.44294    
    715000   715            306.15403      228.02624      307.41249      0.0064995708  -1087495.4     -1087557.5     -141.30602    
    715500   715.5          294.66747      229.09239      295.74811      0.0050856866  -1087500.6     -1087560.3     -192.57467    
    716000   716            294.42495      251.0274       295.20437      0.0061851077  -1087495.9     -1087555.7     -595.76252    
    716500   716.5          298.84874      294.08618      299.10657      0.0073586198  -1087494.9     -1087555.5     -212.00407    
    717000   717            302.25279      310.9029       302.33075      0.0043544481  -1087497.5     -1087558.8      111.90289    
    717500   717.5          308.68695      377.77519      307.94864      0.01077743    -1087495.2     -1087557.8      27.885465    
    718000   718            305.37975      305.84552      305.57083      0.012687289   -1087492.2     -1087554.2      841.53147    
    718500   718.5          305.98002      322.60761      305.9521       0.012478982   -1087491.6     -1087553.7     -314.08573    
    719000   719            303.29672      363.63584      302.67369      0.017988588   -1087493.9     -1087555.4     -112.13589    
    719500   719.5          309.52337      294.27081      309.9305       0.012325245   -1087491.5     -1087554.3     -124.18036    
    720000   720            297.36853      241.89648      298.31377      0.018350452   -1087494.9     -1087555.2     -210.61084    
    720500   720.5          299.94587      318.99315      299.8812       0.019209839   -1087494.7     -1087555.5     -139.01934    
    721000   721            289.7081       266.20089      290.21448      0.012671553   -1087498.1     -1087556.8     -468.72842    
    721500   721.5          289.35229      304.71679      289.33076      0.0095954497  -1087497.7     -1087556.4     -140.80655    
    722000   722            299.7572       323.18777      299.63291      0.0090738173  -1087494.1     -1087554.9     -464.56869    
    722500   722.5          301.05631      318.26769      301.01728      0.013687124   -1087495.1     -1087556.1     -173.59123    
    723000   723            286.95839      228.59105      287.9362       0.0094935404  -1087498.7     -1087556.9     -172.33219    
    723500   723.5          302.53074      333.12613      302.31098      0.0068601128  -1087492.5     -1087553.8     -784.53403    
    724000   724            294.82711      222.84093      295.99488      0.004994054   -1087495.4     -1087555.2     -413.58013    
    724500   724.5          297.42224      233.01282      298.48883      0.0094402331  -1087494.7     -1087555       -343.93097    
    725000   725            302.76208      378.76227      301.92611      0.0075976888  -1087493.1     -1087554.5     -584.99016    
    725500   725.5          294.03332      285.84395      294.33456      0.011167563   -1087498.1     -1087557.7     -136.34908    
    726000   726            293.33851      363.14559      292.58052      0.011394932   -1087495.4     -1087554.9     -169.4576     
    726500   726.5          304.0958       333.25229      303.89658      0.010055017   -1087493.1     -1087554.8     -680.29976    
    727000   727            297.49743      362.305        296.81         0.0060278478  -1087493       -1087553.3     -1013.5627    
    727500   727.5          296.15204      457.25867      294.15651      0.009988537   -1087495.6     -1087555.7     -12.28518     
    728000   728            302.54992      398.47089      301.4434       0.010494293   -1087493.9     -1087555.3     -253.56327    
    728500   728.5          300.73999      381.85327      299.83331      0.010231537   -1087495.1     -1087556.1      14.530054    
    729000   729            292.25057      345.41748      291.71776      0.011898027   -1087497.8     -1087557.1     -163.48986    
    729500   729.5          295.29418      391.14336      294.18394      0.0089411316  -1087494.7     -1087554.6     -504.32631    
    730000   730            295.97278      320.04128      295.83738      0.0089789265  -1087496.3     -1087556.3     -347.37271    
    730500   730.5          297.35976      308.04958      297.40687      0.011360805   -1087495.6     -1087555.9     -481.29522    
    731000   731            295.21993      259.47481      295.89599      0.010285617   -1087499.1     -1087559       -260.10638    
    731500   731.5          290.88683      315.47942      290.74103      0.01864719    -1087494.2     -1087553.2     -76.679994    
    732000   732            295.31202      219.67358      296.52968      0.016397105   -1087497.1     -1087557       -494.66155    
    732500   732.5          297.92262      323.72786      297.7649       0.017509669   -1087497.3     -1087557.8     -370.43236    
    733000   733            293.38556      257.2746       294.0654       0.011746308   -1087494.1     -1087553.6      80.959184    
    733500   733.5          296.75151      352.72324      296.18354      0.012334325   -1087496.7     -1087556.9     -524.08292    
    734000   734            293.57024      321.3468       293.38295      0.0076493227  -1087495.3     -1087554.8     -206.97517    
    734500   734.5          299.6283       259.16535      300.37126      0.0095595115  -1087494.8     -1087555.6      30.957302    
    735000   735            310.43677      323.14982      310.46486      0.012455817   -1087489.2     -1087552.1     -239.20239    
    735500   735.5          302.63358      248.64891      303.56203      0.016681015   -1087489.1     -1087550.5     -340.73382    
    736000   736            306.7603       230.92686      307.98801      0.014351843   -1087489.8     -1087552.1     -191.45219    
    736500   736.5          290.02151      273.61775      290.43166      0.016662412   -1087492.2     -1087551.1     -205.70438    
    737000   737            291.60808      250.69614      292.35195      0.010150814   -1087493.1     -1087552.2     -119.79475    
    737500   737.5          293.39546      204.77709      294.78808      0.018916691   -1087496       -1087555.5     -363.1022     
    738000   738            296.94894      268.16321      297.53165      0.016510945   -1087493.2     -1087553.4      48.398025    
    738500   738.5          304.59588      257.73535      305.42889      0.020573127   -1087491.8     -1087553.5     -135.95754    
    739000   739            307.25608      348.66902      306.89252      0.018161762   -1087491.6     -1087553.9      357.74846    
    739500   739.5          303.05796      370.69185      302.33575      0.020357806   -1087491.7     -1087553.2     -776.87452    
    740000   740            299.45011      401.09784      298.26385      0.013787837   -1087495       -1087555.8      114.63492    
    740500   740.5          291.97108      334.49173      291.58261      0.0096985389  -1087495.9     -1087555.1     -329.29114    
    741000   741            301.75296      250.14036      302.64864      0.007650388   -1087495.4     -1087556.6     -665.05391    
    741500   741.5          296.13211      373.76267      295.26973      0.0077554788  -1087493.6     -1087553.7     -346.42562    
    742000   742            299.1474       281.46282      299.58084      0.010897069   -1087495.1     -1087555.8      104.82058    
    742500   742.5          300.97523      290.59191      301.31074      0.01321223    -1087495.5     -1087556.6     -53.39389     
    743000   743            303.24405      261.97865      304.00023      0.0043560186  -1087491.8     -1087553.3     -347.3832     
    743500   743.5          297.73885      354.77375      297.15708      0.0058435668  -1087493.5     -1087553.9     -51.602236    
    744000   744            298.39864      240.04562      299.38365      0.016006303   -1087492.7     -1087553.2     -159.29796    
    744500   744.5          289.9063       270.94428      290.3511       0.023523883   -1087498.1     -1087556.9     -220.82173    
    745000   745            297.9306       327.04577      297.72796      0.015375695   -1087495.7     -1087556.1     -230.14994    
    745500   745.5          295.09003      298.90375      295.22901      0.022350473   -1087495.1     -1087555       -218.17903    
    746000   746            297.56342      291.88209      297.83289      0.021416499   -1087494.9     -1087555.2     -103.05987    
    746500   746.5          298.92194      302.72788      299.0635       0.023320358   -1087497.5     -1087558.1     -610.06196    
    747000   747            291.95076      281.46605      292.28181      0.021019935   -1087497.2     -1087556.4      654.67524    
    747500   747.5          298.73055      358.73931      298.10905      0.028617996   -1087495.3     -1087555.9     -343.45028    
    748000   748            295.2571       269.32754      295.79994      0.024098536   -1087498.9     -1087558.7     -354.65414    
    748500   748.5          293.44148      231.67199      294.46966      0.02373987    -1087493.4     -1087552.9     -122.14213    
    749000   749            296.59244      314.56744      296.54016      0.027063558   -1087495.6     -1087555.7     -307.79891    
    749500   749.5          295.63306      304.51643      295.70357      0.023572426   -1087493.9     -1087553.9     -267.86348    
    750000   750            309.14165      330.19365      309.05571      0.022127856   -1087487.6     -1087550.3      239.17268    
    750500   750.5          302.411        279.30484      302.92014      0.023209127   -1087496.2     -1087557.6     -430.41949    
    751000   751            305.038        275.58761      305.63496      0.023969699   -1087493.9     -1087555.7     -111.92233    
    751500   751.5          308.4117       258.74897      309.28521      0.019135877   -1087492.8     -1087555.4     -294.67624    
    752000   752            298.15754      343.32017      297.7372       0.018584783   -1087494.6     -1087555.1     -267.08073    
    752500   752.5          294.29335      323.60539      294.08568      0.024421376   -1087495.5     -1087555.2     -182.63816    
    753000   753            291.37238      252.96479      292.0821       0.029792151   -1087497.6     -1087556.7      58.032837    
    753500   753.5          292.1272       293.30152      292.3001       0.025798082   -1087494.2     -1087553.4     -726.4242     
    754000   754            320.94825      264.5371       321.92148      0.033468481   -1087489.1     -1087554.2     -382.13825    
    754500   754.5          294.77497      266.7671       295.34571      0.020970042   -1087497.4     -1087557.2     -483.19227    
    755000   755            304.73576      317.36294      304.76133      0.026574738   -1087494       -1087555.8     -709.94511    
    755500   755.5          301.5379       306.80667      301.66129      0.027360768   -1087493.2     -1087554.3     -526.92274    
    756000   756            311.70689      359.27952      311.2626       0.025056574   -1087494.1     -1087557.3     -152.41443    
    756500   756.5          308.66762      447.47326      306.98291      0.025232078   -1087495.1     -1087557.7      29.326731    
    757000   757            304.90469      317.0494       304.93692      0.028675322   -1087494.9     -1087556.8     -521.68808    
    757500   757.5          299.17542      262.62333      299.86499      0.028692672   -1087498.3     -1087559       -243.34028    
    758000   758            298.78916      269.84591      299.37519      0.027825258   -1087493.9     -1087554.5     -16.14928     
    758500   758.5          299.18073      308.59238      299.24637      0.03183864    -1087496.9     -1087557.6     -462.05987    
    759000   759            294.15682      282.51196      294.50504      0.036781749   -1087497.6     -1087557.3     -722.08582    
    759500   759.5          297.38093      289.37489      297.68184      0.030707025   -1087498.9     -1087559.2     -432.34158    
    760000   760            298.18645      342.74451      297.77434      0.035750154   -1087496.9     -1087557.4     -420.23126    
    760500   760.5          292.05254      313.59918      291.94884      0.023979927   -1087495.8     -1087555       -374.43806    
    761000   761            298.66492      234.93738      299.72306      0.031894361   -1087497.6     -1087558.1     -804.81276    
    761500   761.5          312.61768      564.75382      309.3971       0.030978213   -1087491.1     -1087554.5      251.46952    
    762000   762            291.3505       313.40005      291.23952      0.033990675   -1087496.5     -1087555.6      140.36063    
    762500   762.5          293.14088      344.25892      292.63646      0.030584082   -1087493.3     -1087552.8     -213.89746    
    763000   763            304.92333      243.94564      305.94819      0.028925054   -1087495.8     -1087557.6     -928.85427    
    763500   763.5          304.43471      304.86407      304.62567      0.029123107   -1087495.6     -1087557.4      27.666341    
    764000   764            299.56827      260.30748      300.29487      0.024072221   -1087497.9     -1087558.7     -204.85235    
    764500   764.5          295.14983      338.14253      294.75701      0.022685335   -1087495.4     -1087555.3      42.605956    
    765000   765            303.46529      335.93978      303.22062      0.031590975   -1087494.3     -1087555.8      567.75449    
    765500   765.5          306.65165      256.82791      307.52621      0.030909141   -1087493.7     -1087555.9     -521.33624    
    766000   766            296.06826      235.8193       297.0775       0.02726709    -1087493.1     -1087553.2     -916.20108    
    766500   766.5          297.46318      256.63242      298.20973      0.030817594   -1087495.8     -1087556.1     -357.99946    
    767000   767            295.88876      305.52453      295.94922      0.035081099   -1087496.9     -1087556.9      12.243013    
[...]
   5432500   5432.5         294.58185      272.45457      295.07264      0.028716284   -1087497.5     -1087557.3     -1233.3583    
   5433000   5433           297.33761      251.40628      298.15332      0.029879578   -1087494.3     -1087554.6     -263.75366    
   5433500   5433.5         304.00651      242.15424      305.04265      0.033699048   -1087492.9     -1087554.5      104.86351    
   5434000   5434           303.44005      254.80986      304.29634      0.035904485   -1087494.6     -1087556.2      149.21576    
   5434500   5434.5         294.58778      259.00765      295.26119      0.037950262   -1087495.9     -1087555.7     -345.54018    
   5435000   5435           292.60407      247.97647      293.39901      0.035225397   -1087494.3     -1087553.6     -587.00297    
   5435500   5435.5         307.90139      280.10119      308.4778       0.033403545   -1087491.2     -1087553.7      253.01854    
   5436000   5436           300.43015      318.52492      300.37873      0.038365358   -1087497.7     -1087558.6     -627.62433    
   5436500   5436.5         293.79514      283.67668      294.12241      0.03655684    -1087497.7     -1087557.2     -626.6888     
   5437000   5437           312.75572      380.0907       312.04384      0.042091222   -1087490.4     -1087553.8     -461.4039     
   5437500   5437.5         295.54694      327.31057      295.30681      0.032673026   -1087499.9     -1087559.9     -61.69355     
   5438000   5438           293.64876      297.2517       293.78967      0.036152079   -1087496.6     -1087556.2     -492.05422    
   5438500   5438.5         305.31131      304.22005      305.52348      0.030771659   -1087494.5     -1087556.4     -496.07253    
   5439000   5439           292.80688      288.06676      293.0605       0.032077145   -1087496.1     -1087555.5     -447.49065    
   5439500   5439.5         286.95433      278.22084      287.25837      0.031278619   -1087498.6     -1087556.8     -584.22949    
   5440000   5440           296.86443      278.61084      297.30412      0.026919254   -1087495       -1087555.2      17.8822      
   5440500   5440.5         295.52261      290.46907      295.78224      0.030100212   -1087497       -1087556.9     -515.49709    
   5441000   5441           301.61518      371.74447      300.85816      0.031235047   -1087495       -1087556.2     -1313.0408    
   5441500   5441.5         307.76281      298.8739       308.08241      0.03237868    -1087494.4     -1087556.8     -41.772238    
   5442000   5442           295.95357      313.89029      295.9014       0.027341099   -1087496.1     -1087556.1      18.49869     
   5442500   5442.5         298.58144      268.38323      299.18438      0.024493524   -1087498       -1087558.6     -141.90525    
   5443000   5443           294.04862      250.32772      294.8322       0.018727963   -1087498.3     -1087557.9     -128.67738    
   5443500   5443.5         297.3192       221.44428      298.54137      0.018480631   -1087494.9     -1087555.2     -585.02113    
   5444000   5444           285.78444      188.08139      287.29546      0.020080437   -1087496.4     -1087554.3      8.8096193    
   5444500   5444.5         296.79662      348.41333      296.2878       0.016533516   -1087496.3     -1087556.4     -14.555549    
   5445000   5445           307.38816      412.58191      306.15889      0.021636039   -1087493.7     -1087556       -40.210497    
   5445500   5445.5         305.76995      279.42053      306.32529      0.017832178   -1087493.3     -1087555.4     -199.77791    
   5446000   5446           303.1062       265.02218      303.8191       0.021596375   -1087493.8     -1087555.2     -585.1789     
   5446500   5446.5         299.72501      284.66222      300.12323      0.022974773   -1087495.8     -1087556.6     -195.37132    
   5447000   5447           302.33626      239.63232      303.38287      0.024449188   -1087497.7     -1087559       -175.34794    
   5447500   5447.5         300.09775      296.00999      300.34722      0.020210528   -1087493.8     -1087554.6     -568.7164     
   5448000   5448           306.02246      294.99173      306.37002      0.02157552    -1087492.8     -1087554.9     -485.50913    
   5448500   5448.5         304.91031      383.31559      304.04308      0.02352977    -1087491.8     -1087553.7     -573.68643    
   5449000   5449           310.93556      357.30587      310.50709      0.022888306   -1087492.9     -1087556       -355.76065    
   5449500   5449.5         307.50121      282.43906      308.0402       0.023151308   -1087496.2     -1087558.6      28.318261    
   5450000   5450           296.09287      277.17198      296.54111      0.026001223   -1087496       -1087556.1     -307.11947    
   5450500   5450.5         303.76075      263.68206      304.50116      0.018630599   -1087496       -1087557.6     -816.40978    
   5451000   5451           313.51916      259.05461      314.46116      0.018601489   -1087493.9     -1087557.5     -441.79417    
   5451500   5451.5         294.37482      223.07268      295.53301      0.027622603   -1087500.6     -1087560.3     -311.78438    
   5452000   5452           296.40453      275.98118      296.87337      0.03306822    -1087498.8     -1087558.9     -318.83955    
   5452500   5452.5         300.12712      348.82577      299.66006      0.024584174   -1087496       -1087556.9     -557.59897    
   5453000   5453           301.38837      289.58794      301.74338      0.023758258   -1087498       -1087559.1      671.71264    
   5453500   5453.5         299.43655      391.16229      298.38497      0.026200072   -1087496.4     -1087557.1     -290.29865    
   5454000   5454           294.22985      271.71932      294.72561      0.031899461   -1087494.2     -1087553.8     -426.16658    
   5454500   5454.5         302.44719      299.24578      302.68615      0.031065832   -1087495.4     -1087556.7     -102.36113    
   5455000   5455           294.51297      326.44966      294.26981      0.031794755   -1087497.5     -1087557.2     -84.65523     
   5455500   5455.5         293.48548      358.65267      292.79057      0.033395783   -1087499.1     -1087558.7     -339.06248    
   5456000   5456           293.38035      212.33208      294.6702       0.032496893   -1087497.7     -1087557.2     -358.6802     
   5456500   5456.5         305.26865      234.14035      306.43152      0.037559642   -1087496.1     -1087558       -11.659213    
   5457000   5457           307.18638      313.44304      307.30002      0.034373453   -1087490.8     -1087553.1      136.35708    
   5457500   5457.5         297.91137      272.20715      298.45287      0.033796203   -1087495.3     -1087555.8     -109.77609    
   5458000   5458           302.48935      326.16017      302.36356      0.031377647   -1087494.8     -1087556.2      99.119569    
   5458500   5458.5         300.02212      321.19389      299.92866      0.036479272   -1087494.6     -1087555.5     -225.46864    
   5459000   5459           307.59022      325.97511      307.53948      0.034692622   -1087491.9     -1087554.3     -625.88101    
   5459500   5459.5         302.19193      254.80704      303.0305       0.040240181   -1087494.4     -1087555.7     -489.11285    
   5460000   5460           307.98494      290.65681      308.41925      0.034215726   -1087493.3     -1087555.8     -120.63771    
   5460500   5460.5         312.98288      316.16701      313.14197      0.039520525   -1087492.4     -1087555.9      32.737637    
   5461000   5461           298.07762      295.8165       298.30099      0.043882751   -1087500.2     -1087560.7      61.195652    
   5461500   5461.5         295.61853      322.73686      295.44149      0.040287992   -1087497.9     -1087557.8     -15.267369    
   5462000   5462           292.2494       331.44911      291.90619      0.035783693   -1087498.8     -1087558       -713.15213    
   5462500   5462.5         297.41875      284.37646      297.78805      0.041784906   -1087498.4     -1087558.8     -54.755073    
   5463000   5463           303.84772      217.32032      305.21871      0.038102057   -1087497.3     -1087558.9     -408.41796    
   5463500   5463.5         301.14269      266.0664       301.8135       0.039989742   -1087496.3     -1087557.4     -312.55825    
   5464000   5464           297.83447      225.30151      299.0116       0.039567434   -1087493       -1087553.4      46.886295    
   5464500   5464.5         305.30379      323.68368      305.25165      0.035944186   -1087493.6     -1087555.5     -237.34026    
   5465000   5465           293.89167      255.14687      294.60759      0.036329598   -1087497.5     -1087557.1     -382.25301    
   5465500   5465.5         299.49003      291.74772      299.78873      0.032318611   -1087491.3     -1087552        542.94808    
   5466000   5466           301.4152       312.84324      301.45491      0.038239565   -1087494.8     -1087555.9     -378.16788    
   5466500   5466.5         293.59733      389.21535      292.48914      0.030540611   -1087497.3     -1087556.8     -5.1240852    
   5467000   5467           298.32754      319.83464      298.22843      0.035146456   -1087495.9     -1087556.4     -174.57929    
   5467500   5467.5         303.83691      284.62938      304.29405      0.030033902   -1087493.1     -1087554.7     -711.58275    
   5468000   5468           304.86587      260.5492       305.66452      0.032668302   -1087491.9     -1087553.7     -240.56651    
   5468500   5468.5         305.23556      234.27499      306.39613      0.040916619   -1087494.9     -1087556.8     -90.402238    
   5469000   5469           293.66931      382.34263      292.65543      0.038414329   -1087496.2     -1087555.8     -934.13818    
   5469500   5469.5         287.13963      267.39519      287.59326      0.03965396    -1087498.4     -1087556.7     -269.96278    
   5470000   5470           297.1488       276.56564      297.62029      0.034381163   -1087494.9     -1087555.2     -249.41047    
   5470500   5470.5         303.00179      355.05412      302.49106      0.040370952   -1087496.2     -1087557.7     -947.2819     
   5471000   5471           312.21974      338.15085      312.06955      0.045246277   -1087492.6     -1087555.9     -111.61154    
   5471500   5471.5         292.66581      250.51686      293.42715      0.044070103   -1087499.6     -1087559        437.76048    
   5472000   5472           299.10571      246.33162      300.01545      0.039165877   -1087491.3     -1087551.9      112.37769    
   5472500   5472.5         293.084        319.77696      292.91111      0.037554122   -1087494.7     -1087554.2     -256.94553    
   5473000   5473           305.83226      260.70985      306.64248      0.03651783    -1087492.7     -1087554.8      205.27992    
   5473500   5473.5         299.41522      298.78247      299.61735      0.030311793   -1087489.2     -1087549.9      317.18805    
   5474000   5474           288.4111       219.5046       289.53291      0.028549227   -1087496.4     -1087554.9     -101.12722    
   5474500   5474.5         301.85283      243.38427      302.84164      0.030219282   -1087495.3     -1087556.6      42.170633    
   5475000   5475           289.95285      300.62683      289.99538      0.031181976   -1087494.8     -1087553.6     -162.87159    
   5475500   5475.5         296.48582      353.47022      295.90393      0.029748413   -1087496.1     -1087556.2     -205.42633    
   5476000   5476           287.42838      226.54667      288.44062      0.029114911   -1087496.7     -1087554.9     -339.56713    
   5476500   5476.5         290.41061      343.45661      289.87826      0.025622882   -1087497       -1087555.9     -406.96005    
   5477000   5477           291.31485      325.45102      291.03977      0.033056538   -1087493.7     -1087552.8     -400.38306    
   5477500   5477.5         295.41637      278.25423      295.84031      0.036754079   -1087495.4     -1087555.3     -251.96704    
   5478000   5478           299.93955      380.38662      299.0414       0.033747037   -1087493.5     -1087554.4     -199.12481    
   5478500   5478.5         294.61444      262.88351      295.23562      0.031693653   -1087490.6     -1087550.4     -443.61257    
   5479000   5479           300.52222      323.18499      300.40884      0.036021833   -1087494.1     -1087555       -646.75153    
   5479500   5479.5         303.53795      331.88611      303.34934      0.031968534   -1087495       -1087556.5      113.89       
   5480000   5480           295.74663      242.81295      296.65637      0.030767993   -1087493.9     -1087553.9     -428.90723    
   5480500   5480.5         289.92088      341.97431      289.40168      0.030901972   -1087499.5     -1087558.3     -46.633327    
   5481000   5481           290.18861      235.86456      291.11362      0.030445137   -1087497.6     -1087556.4     -396.47202    
   5481500   5481.5         288.03017      264.63075      288.534        0.028663771   -1087498.4     -1087556.8     -216.28994    
   5482000   5482           298.47658      324.59482      298.31498      0.021618325   -1087496.3     -1087556.8     -598.43858    
   5482500   5482.5         298.619        364.41764      297.91884      0.022687186   -1087494.8     -1087555.3     -65.029993    
   5483000   5483           299.13452      232.43488      300.23331      0.028131721   -1087497.1     -1087557.8     -61.804067    
   5483500   5483.5         290.29345      315.85255      290.13414      0.028892973   -1087496.9     -1087555.7     -1369.1291    
   5484000   5484           295.10943      384.61862      294.08514      0.022763299   -1087497.1     -1087556.9     -313.59052    
   5484500   5484.5         301.38982      301.46826      301.58357      0.032425611   -1087495.3     -1087556.4      87.408956    
   5485000   5485           295.20854      356.83284      294.56284      0.020268943   -1087496.1     -1087556        269.69152    
   5485500   5485.5         300.62168      358.3098       300.0329       0.031383962   -1087495.2     -1087556.2     -284.86237    
   5486000   5486           295.47333      318.84319      295.34709      0.030478474   -1087494.3     -1087554.3     -72.037016    
   5486500   5486.5         313.66908      295.20039      314.12255      0.029062978   -1087491       -1087554.6     -374.02703    
   5487000   5487           304.6342       261.54877      305.41599      0.028411617   -1087492.3     -1087554       -664.97702    
   5487500   5487.5         303.49147      412.5975       302.20657      0.024502117   -1087493.7     -1087555.2     -165.41364    
   5488000   5488           300.5184       282.62429      300.95557      0.030914964   -1087496.6     -1087557.6     -7.2375955    
   5488500   5488.5         305.37308      362.47856      304.79529      0.029752217   -1087492.6     -1087554.5      295.36611    
   5489000   5489           312.12268      437.02013      310.629        0.027416622   -1087493       -1087556.3     -493.11261    
   5489500   5489.5         302.44659      298.92155      302.68994      0.027929113   -1087496.4     -1087557.8     -215.10756    
   5490000   5490           296.95508      283.78991      297.32575      0.025575346   -1087496.9     -1087557.1     -477.02561    
   5490500   5490.5         294.57736      242.85781      295.46985      0.029730376   -1087495.6     -1087555.4     -660.26144    
   5491000   5491           302.38026      299.2042       302.61884      0.033574596   -1087496       -1087557.4     -449.33188    
   5491500   5491.5         297.35333      249.30156      298.19782      0.03151837    -1087494.4     -1087554.7     -252.47897    
   5492000   5492           297.8561       311.79963      297.85936      0.027767422   -1087494.1     -1087554.5      109.66677    
   5492500   5492.5         296.48848      337.21677      296.12727      0.026996639   -1087497.6     -1087557.8     -1031.7136    
   5493000   5493           295.29184      241.75149      296.20952      0.026497094   -1087496.5     -1087556.4      295.97775    
   5493500   5493.5         297.15832      245.24777      298.05508      0.023318204   -1087492       -1087552.3     -71.358562    
   5494000   5494           309.51949      380.80095      308.75194      0.022741807   -1087491.8     -1087554.5     -383.73074    
   5494500   5494.5         283.38016      279.76821      283.61237      0.032607426   -1087497.8     -1087555.3     -381.71588    
   5495000   5495           292.00942      271.92997      292.47075      0.024250287   -1087496.7     -1087555.9     -417.37059    
   5495500   5495.5         299.03555      280.05486      299.48651      0.023120158   -1087493.8     -1087554.4     -23.112354    
   5496000   5496           309.19523      232.26698      310.43938      0.029396412   -1087490.9     -1087553.6     -70.468303    
   5496500   5496.5         307.91665      288.62179      308.37761      0.024882563   -1087490.6     -1087553       -863.1887     
   5497000   5497           307.87313      308.40634      308.0649       0.030268415   -1087495.1     -1087557.5      525.78401    
   5497500   5497.5         292.01602      274.85166      292.43778      0.027094812   -1087494.5     -1087553.7     -187.39877    
   5498000   5498           297.08437      271.74708      297.62036      0.028782806   -1087497.7     -1087558       -412.10238    
   5498500   5498.5         298.94566      244.97141      299.87158      0.025778511   -1087494.6     -1087555.2     -370.87813    
   5499000   5499           299.80225      217.79045      301.10933      0.030176845   -1087494.5     -1087555.3     -253.52477    
   5499500   5499.5         301.74784      322.01184      301.66782      0.029583022   -1087495.6     -1087556.8      108.61477    
   5500000   5500           300.32656      288.29604      300.68401      0.032104438   -1087492.3     -1087553.3     -126.59646    
Loop time of 90118.8 on 1 procs for 5000000 steps with 1570 atoms

Performance: 4.794 ns/day, 5.007 hours/ns, 55.482 timesteps/s, 87.107 katom-step/s
99.9% CPU use with 1 MPI tasks x 1 OpenMP threads

MPI task timing breakdown:
Section |  min time  |  avg time  |  max time  |%varavg| %total
---------------------------------------------------------------
Pair    | 82443      | 82443      | 82443      |   0.0 | 91.48
Bond    | 0.6957     | 0.6957     | 0.6957     |   0.0 |  0.00
Neigh   | 66.067     | 66.067     | 66.067     |   0.0 |  0.07
Comm    | 89.01      | 89.01      | 89.01      |   0.0 |  0.10
Output  | 14.77      | 14.77      | 14.77      |   0.0 |  0.02
Modify  | 7134.4     | 7134.4     | 7134.4     |   0.0 |  7.92
Other   |            | 370.6      |            |       |  0.41

Nlocal:           1570 ave        1570 max        1570 min
Histogram: 1 0 0 0 0 0 0 0 0 0
Nghost:              0 ave           0 max           0 min
Histogram: 1 0 0 0 0 0 0 0 0 0
Neighs:              0 ave           0 max           0 min
Histogram: 1 0 0 0 0 0 0 0 0 0
FullNghs:       149246 ave      149246 max      149246 min
Histogram: 1 0 0 0 0 0 0 0 0 0

Total # of neighbors = 149246
Ave neighs/atom = 95.061146
Ave special neighs/atom = 0
Neighbor list builds = 218348
Dangerous builds = 0
write_restart       npbc/restart_alanine_nbpc_off23_stage13corr_s991000_20260319_194116_prod.lammps
System init for write_restart ...
cavity/meanfield: enabling VDWPARM mode, reading bias/VDWPARM_R15_S0125_step5000_stage13_outerSingles41_60.dat
cavity/meanfield: reading initial amplitudes from bias/gau_stage13.dat
write_data          npbc/alanine_nbpc_off23_stage13corr_s991000_20260319_194116_prod_final.data
System init for write_data ...
cavity/meanfield: enabling VDWPARM mode, reading bias/VDWPARM_R15_S0125_step5000_stage13_outerSingles41_60.dat
cavity/meanfield: reading initial amplitudes from bias/gau_stage13.dat
Total wall time: 25:02:07
