
units               metal
atom_style          molecular
atom_modify         map yes
newton              on
dimension           3
boundary            p p p

variable            model_file       string "/home/utente/giuseppe/ML_Embedding/MACE/Alanine_dipeptide/MACE-OFF_2023_small/MACE-OFF23_small.model-mliap_lammps_float32.pt"
variable            species1         string "C"
variable            species2         string "N"
variable            species3         string "O"
variable            species4         string "H"

variable            T                equal 300.0
variable            dt               equal 0.001
variable            tdamp            equal 0.1
variable            rmom_every       index 10
variable            prod_steps       index 5000000
variable            thermo_stride    index 500
variable            dump_stride      index 500

read_restart        pbc/restart_alanine_pbc_off23_stage13corr_s991000_20260319_194116_eq.lammps
Reading restart file ...
  restart file = 2 Apr 2025, LAMMPS = 2 Apr 2025
  restoring atom style molecular/kk from restart
  orthogonal box = (-12.087285 -12.087285 -12.087285) to (12.087285 12.087285 12.087285)
  1 by 1 by 1 MPI processor grid
  pair style mliap stores no restart info
  1570 atoms
Finding 1-2 1-3 1-4 neighbors ...
  special bond factors lj:    0        0        0       
  special bond factors coul:  0        0        0       
     0 = max # of 1-2 neighbors
     0 = max # of 1-3 neighbors
     0 = max # of 1-4 neighbors
     1 = max # of special neighbors
  special bonds CPU = 0.001 seconds
  read_restart CPU = 0.010 seconds
timestep            ${dt}
timestep            0.001

pair_style          mliap unified ${model_file} 0
pair_style          mliap unified /home/utente/giuseppe/ML_Embedding/MACE/Alanine_dipeptide/MACE-OFF_2023_small/MACE-OFF23_small.model-mliap_lammps_float32.pt 0
pair_coeff          * * ${species1} ${species2} ${species3} ${species4}
pair_coeff          * * C ${species2} ${species3} ${species4}
pair_coeff          * * C N ${species3} ${species4}
pair_coeff          * * C N O ${species4}
pair_coeff          * * C N O H

group               solute molecule 1
22 atoms in group solute
group               solvent subtract all solute
1548 atoms in group solvent

compute             t_solute  solute temp
compute             t_solvent solvent temp

thermo_style        custom step time temp c_t_solute c_t_solvent etotal epair press vol
thermo              ${thermo_stride}
thermo              500
thermo_modify       flush yes

fix                 int_sol   solute nvt temp ${T} ${T} ${tdamp}
fix                 int_sol   solute nvt temp 300 ${T} ${tdamp}
fix                 int_sol   solute nvt temp 300 300 ${tdamp}
fix                 int_sol   solute nvt temp 300 300 0.1
fix                 int_solv  solvent nvt temp ${T} ${T} ${tdamp}
fix                 int_solv  solvent nvt temp 300 ${T} ${tdamp}
fix                 int_solv  solvent nvt temp 300 300 ${tdamp}
fix                 int_solv  solvent nvt temp 300 300 0.1
fix                 rmom      all momentum ${rmom_every} linear 1 1 1
fix                 rmom      all momentum 10 linear 1 1 1

dump                dprod all custom ${dump_stride} pbc/traj_alanine_pbc_off23_stage13corr_s991000_20260319_194116_prod.dump id mol type x y z
dump                dprod all custom 500 pbc/traj_alanine_pbc_off23_stage13corr_s991000_20260319_194116_prod.dump id mol type x y z
dump_modify         dprod sort id append no

run                 ${prod_steps}
run                 5000000
Unused restart file global fix info:
  fix style: npt, fix ID: eq
Neighbor list info ...
  update: every = 1 steps, delay = 0 steps, check = yes
  max neighbors/atom: 2000, page size: 100000
  master list distance cutoff = 6.5
  ghost atom cutoff = 6.5
  binsize = 6.5, bins = 4 4 4
  1 neighbor lists, perpetual/occasional/extra = 1 0 0
  (1) pair mliap/kk, perpetual
      attributes: full, newton on, kokkos_device
      pair build: full/bin/kk/device
      stencil: full/bin/3d
      bin: kk/device
Per MPI rank memory allocation (min/avg/max) = 414.4 | 414.4 | 414.4 Mbytes
   Step          Time           Temp        c_t_solute    c_t_solvent       TotEng         E_pair         Press          Volume    
    500000   500            306.72016      339.17283      306.4779      -1087518.5     -1087580.7     -449.12639      14127.855    
    500500   500.5          314.03837      293.29143      314.523       -1087518.3     -1087582        764.5177       14127.855    
    501000   501            303.95955      392.75816      302.95063     -1087521.6     -1087583.2      1189.0642      14127.855    
    501500   501.5          302.54487      336.55781      302.27873     -1087518.6     -1087580        1170.3003      14127.855    
    502000   502            294.48392      271.16608      294.99081     -1087517.6     -1087577.4      487.67217      14127.855    
    502500   502.5          294.14062      315.00906      294.04747     -1087519.9     -1087579.6      579.26037      14127.855    
    503000   503            294.77306      256.97528      295.4767      -1087521.8     -1087581.6     -2261.1742      14127.855    
    503500   503.5          293.32709      232.14735      294.3472      -1087520.3     -1087579.8      1048.7429      14127.855    
    504000   504            307.43881      246.42429      308.46579     -1087519.8     -1087582.2     -1763.7824      14127.855    
    504500   504.5          300.16609      316.97999      300.13188     -1087517.2     -1087578.1     -66.302558      14127.855    
    505000   505            290.46159      376.44956      289.48209     -1087522.4     -1087581.3     -94.64993       14127.855    
    505500   505.5          305.83595      309.70289      305.98116     -1087520.5     -1087582.5      323.90984      14127.855    
    506000   506            299.80856      292.41826      300.10268     -1087516.9     -1087577.7     -2829.4422      14127.855    
    506500   506.5          303.82186      306.17158      303.98636     -1087517.8     -1087579.5     -966.56208      14127.855    
    507000   507            306.36176      325.52385      306.29968     -1087513.6     -1087575.8      1290.7544      14127.855    
    507500   507.5          302.61491      251.73196      303.50124     -1087516.9     -1087578.3     -100.96313      14127.855    
    508000   508            296.46151      274.25809      296.95455     -1087520.3     -1087580.5     -394.22514      14127.855    
    508500   508.5          301.18393      285.37427      301.59323     -1087519.1     -1087580.2     -1446.2704      14127.855    
    509000   509            301.7162       316.05014      301.71666     -1087518       -1087579.2      2720.9154      14127.855    
    509500   509.5          294.35592      303.82065      294.41772     -1087516.4     -1087576.1     -755.66336      14127.855    
    510000   510            311.05326      291.19134      311.52395     -1087516.3     -1087579.4      673.25538      14127.855    
    510500   510.5          295.6536       215.04258      296.93898     -1087517.6     -1087577.6      366.13813      14127.855    
    511000   511            309.4456       332.96693      309.32633     -1087518.6     -1087581.4     -1045.364       14127.855    
    511500   511.5          297.44483      272.55717      297.97494     -1087520.8     -1087581.1     -2331.4012      14127.855    
    512000   512            289.6366       273.59245      290.04162     -1087521.7     -1087580.4     -265.56394      14127.855    
    512500   512.5          307.14934      283.44782      307.66962     -1087520.6     -1087582.9      270.04005      14127.855    
    513000   513            303.07758      417.24261      301.72374     -1087522.3     -1087583.8      496.05372      14127.855    
    513500   513.5          297.34725      306.32728      297.41756     -1087522.3     -1087582.6     -3137.1515      14127.855    
    514000   514            290.40027      414.05552      288.90941     -1087523.2     -1087582.1     -1023.5579      14127.855    
    514500   514.5          298.47629      308.63969      298.53126     -1087517.7     -1087578.2     -859.88706      14127.855    
    515000   515            308.34348      233.24878      309.56218     -1087519.3     -1087581.9     -1222.9617      14127.855    
    515500   515.5          297.00368      278.39757      297.44823     -1087523.6     -1087583.8     -1434.0052      14127.855    
    516000   516            295.14527      268.49582      295.69781     -1087521.3     -1087581.2     -1551.4938      14127.855    
    516500   516.5          306.80276      287.54565      307.26249     -1087519.9     -1087582.1      542.84489      14127.855    
    517000   517            300.04444      336.3286       299.74585     -1087518.4     -1087579.2     -1283.1292      14127.855    
    517500   517.5          296.47365      317.85263      296.37508     -1087520.9     -1087581.1     -1578.9953      14127.855    
    518000   518            292.47482      353.4914       291.8356      -1087521.4     -1087580.7     -1724.8667      14127.855    
    518500   518.5          305.46196      317.38747      305.49753     -1087518.4     -1087580.3      415.32558      14127.855    
    519000   519            290.2377       319.52872      290.02769     -1087523.2     -1087582.1     -2976.1354      14127.855    
    519500   519.5          298.91706      333.03497      298.64714     -1087520.2     -1087580.8      1396.7689      14127.855    
    520000   520            295.7689       294.42073      295.97839     -1087519.2     -1087579.2      357.48901      14127.855    
    520500   520.5          311.5694       285.39563      312.12611     -1087517.2     -1087580.3     -3203.013       14127.855    
    521000   521            293.84659      377.02725      292.90739     -1087524       -1087583.6     -1004.2227      14127.855    
    521500   521.5          301.20372      242.10856      302.20062     -1087518.6     -1087579.7      767.39598      14127.855    
    522000   522            305.8712       256.11819      306.7443      -1087521.5     -1087583.6     -1591.2263      14127.855    
    522500   522.5          298.98856      296.76417      299.21203     -1087521.3     -1087581.9     -1504.5138      14127.855    
    523000   523            304.45214      305.23838      304.63827     -1087514.9     -1087576.6     -1164.5381      14127.855    
    523500   523.5          296.98421      243.02499      297.90867     -1087522.9     -1087583.2     -1198.59        14127.855    
    524000   524            298.07839      276.42784      298.56497     -1087521       -1087581.5      82.737126      14127.855    
    524500   524.5          299.99721      272.50124      300.56438     -1087520.6     -1087581.4      1436.2448      14127.855    
    525000   525            306.11441      384.88261      305.24304     -1087519.4     -1087581.5     -1652.5552      14127.855    
    525500   525.5          313.14187      359.05993      312.72097     -1087517.3     -1087580.8     -799.26591      14127.855    
    526000   526            294.77906      241.34524      295.69495     -1087520.3     -1087580.1      900.23395      14127.855    
    526500   526.5          295.06927      322.33435      294.88989     -1087521.6     -1087581.4     -554.66169      14127.855    
    527000   527            298.79997      280.28547      299.24444     -1087520.8     -1087581.4     -44.527252      14127.855    
    527500   527.5          310.46287      275.67152      311.13584     -1087520.6     -1087583.6     -1434.9424      14127.855    
    528000   528            297.55156      242.20993      298.49515     -1087516.8     -1087577.1      1135.1482      14127.855    
    528500   528.5          307.34101      319.57464      307.37362     -1087514.6     -1087576.9     -577.32235      14127.855    
    529000   529            295.07868      266.17474      295.66179     -1087518       -1087577.8      1453.4879      14127.855    
    529500   529.5          300.15007      283.24803      300.57353     -1087519.5     -1087580.4     -2281.5158      14127.855    
    530000   530            296.76417      198.97161      298.2835      -1087519.8     -1087580        3424.8122      14127.855    
    530500   530.5          310.70707      253.7932       311.68051     -1087516.1     -1087579.2      2192.3378      14127.855    
    531000   531            299.61883      332.80289      299.36205     -1087519.7     -1087580.5     -384.35613      14127.855    
    531500   531.5          289.24007      340.40256      288.73253     -1087521.6     -1087580.3     -90.269074      14127.855    
    532000   532            303.29958      385.44054      302.3806      -1087516.6     -1087578.1      85.947569      14127.855    
    532500   532.5          300.04187      205.37613      301.52087     -1087519.3     -1087580.1      2181.2069      14127.855    
    533000   533            293.77631      289.56304      294.0234      -1087520.3     -1087579.9     -1534.5684      14127.855    
    533500   533.5          301.70119      197.2752       303.31377     -1087516.1     -1087577.3      1024.2573      14127.855    
    534000   534            299.20544      367.49759      298.47181     -1087516.4     -1087577.1     -1240.5797      14127.855    
    534500   534.5          291.75234      339.36923      291.29455     -1087518.9     -1087578.1      1096.0082      14127.855    
    535000   535            292.84837      330.76364      292.52299     -1087523       -1087582.4     -2335.7743      14127.855    
    535500   535.5          297.65695      199.57764      299.18076     -1087519.8     -1087580.1      1037.0512      14127.855    
    536000   536            306.53305      282.77822      307.05366     -1087518.3     -1087580.4     -1103.2028      14127.855    
    536500   536.5          297.28715      252.92183      298.08156     -1087519.7     -1087580       -1353.471       14127.855    
    537000   537            297.6384       291.36529      297.91595     -1087519.6     -1087579.9     -1899.9501      14127.855    
    537500   537.5          302.32058      262.41223      303.05775     -1087518       -1087579.3     -871.07626      14127.855    
    538000   538            302.32341      300.43532      302.54447     -1087518.2     -1087579.5     -554.43981      14127.855    
    538500   538.5          294.53454      427.96689      292.91363     -1087518.1     -1087577.8      449.63219      14127.855    
    539000   539            305.65553      274.19429      306.28018     -1087520       -1087582        1393.1498      14127.855    
    539500   539.5          299.4423       237.37518      300.47841     -1087519       -1087579.7      1359.2868      14127.855    
    540000   540            293.89486      347.86859      293.35216     -1087519.9     -1087579.5     -2226.289       14127.855    
    540500   540.5          296.81108      352.7595       296.24346     -1087518.3     -1087578.5     -1725.7741      14127.855    
    541000   541            285.93076      344.51836      285.32029     -1087519.8     -1087577.8     -1058.4242      14127.855    
    541500   541.5          304.60965      252.74062      305.51066     -1087518.9     -1087580.7      1018.3148      14127.855    
    542000   542            304.29114      342.32701      303.97151     -1087518.3     -1087580       -144.0718       14127.855    
    542500   542.5          297.65699      421.67624      296.16588     -1087522.4     -1087582.8     -1911.7959      14127.855    
    543000   543            291.43287      291.52757      291.61997     -1087518       -1087577.2      94.101407      14127.855    
    543500   543.5          306.43883      197.27972      308.11871     -1087516.1     -1087578.2      1588.1393      14127.855    
    544000   544            296.47371      342.50723      296.04046     -1087521       -1087581.2     -148.75839      14127.855    
    544500   544.5          303.56666      292.6334       303.91131     -1087521.5     -1087583.1     -442.75833      14127.855    
    545000   545            307.31083      281.67013      307.85755     -1087517       -1087579.4      363.39717      14127.855    
    545500   545.5          294.52035      255.92918      295.2346      -1087517.6     -1087577.3      1577.4679      14127.855    
    546000   546            292.57913      233.66108      293.56805     -1087521.6     -1087580.9      3275.4081      14127.855    
    546500   546.5          307.63271      255.56912      308.53832     -1087516.7     -1087579.1      972.21512      14127.855    
    547000   547            301.182        182.47827      302.98805     -1087517.3     -1087578.3     -579.44827      14127.855    
    547500   547.5          298.4126       317.97449      298.33995     -1087518.5     -1087579        64.472595      14127.855    
    548000   548            302.83684      287.07675      303.24654     -1087517.9     -1087579.3     -1952.8625      14127.855    
    548500   548.5          292.87441      342.76553      292.38647     -1087518.1     -1087577.5     -512.6091       14127.855    
    549000   549            306.21894      261.71083      307.02107     -1087515.1     -1087577.2      546.62948      14127.855    
    549500   549.5          293.62338      224.08481      294.75714     -1087520       -1087579.5     -663.55703      14127.855    
    550000   550            303.09866      239.41173      304.15911     -1087519.4     -1087580.9     -1312.3265      14127.855    
    550500   550.5          296.23545      269.0729       296.79566     -1087517.5     -1087577.6      799.89756      14127.855    
    551000   551            310.42882      287.04383      310.94693     -1087515.3     -1087578.2     -1811.2533      14127.855    
    551500   551.5          294.82286      257.69058      295.51749     -1087517.5     -1087577.3      771.27117      14127.855    
    552000   552            300.31599      303.90032      300.46146     -1087519.3     -1087580.2      64.921589      14127.855    
    552500   552.5          296.16294      383.99124      295.16214     -1087519.9     -1087580        1350.4502      14127.855    
    553000   553            290.30296      325.88352      290.00762     -1087520.5     -1087579.4     -1783.9987      14127.855    
    553500   553.5          305.75613      354.91216      305.2865      -1087518.8     -1087580.8     -1252.0083      14127.855    
    554000   554            295.78208      234.0068       296.81186     -1087520.3     -1087580.3      1869.1775      14127.855    
    554500   554.5          307.20726      246.28627      308.23283     -1087520.5     -1087582.8      443.46494      14127.855    
    555000   555            304.29074      234.04423      305.44101     -1087516.8     -1087578.5     -2022.2935      14127.855    
    555500   555.5          297.37256      358.93868      296.72905     -1087520.1     -1087580.4      1016.5357      14127.855    
    556000   556            306.2207       235.48899      307.37881     -1087518.9     -1087581        2098.5995      14127.855    
    556500   556.5          295.62551      323.0641       295.44413     -1087517.9     -1087577.9     -778.57708      14127.855    
    557000   557            301.52363      344.44231      301.13593     -1087517.5     -1087578.7     -2726.5524      14127.855    
    557500   557.5          299.92453      285.03917      300.32047     -1087520.2     -1087581       -535.95028      14127.855    
    558000   558            307.35603      334.01789      307.19278     -1087515.6     -1087577.9      2783.6383      14127.855    
    558500   558.5          296.58235      337.3657       296.22045     -1087516.9     -1087577.1     -380.81913      14127.855    
    559000   559            302.93428      315.34914      302.96158     -1087519.5     -1087580.9     -818.51872      14127.855    
    559500   559.5          299.33444      288.15083      299.67974     -1087518.2     -1087579       -101.13         14127.855    
    560000   560            297.72803      319.22216      297.62871     -1087519.1     -1087579.5      843.87651      14127.855    
    560500   560.5          297.99795      275.15357      298.50068     -1087520.4     -1087580.9     -1364.4363      14127.855    
    561000   561            296.19636      378.62054      295.26895     -1087517.3     -1087577.4      326.08732      14127.855    
    561500   561.5          292.75874      278.30037      293.14425     -1087520.2     -1087579.6     -3206.8363      14127.855    
    562000   562            290.24958      291.62918      290.41847     -1087520.7     -1087579.6      2.7224407      14127.855    
    562500   562.5          296.25567      324.57639      296.06273     -1087519.6     -1087579.6     -1630.6734      14127.855    
    563000   563            302.98597      388.68551      302.01849     -1087518.9     -1087580.4     -576.96294      14127.855    
    563500   563.5          289.03594      200.50273      290.42459     -1087520.9     -1087579.5     -748.21067      14127.855    
    564000   564            297.04445      317.0939       296.9643      -1087519.8     -1087580       -2782.7552      14127.855    
    564500   564.5          313.31217      258.26631      314.26192     -1087513.4     -1087576.9     -684.52815      14127.855    
    565000   565            301.29153      273.13969      301.86844     -1087517.9     -1087579        2277.5246      14127.855    
    565500   565.5          306.24993      359.79063      305.72109     -1087518.6     -1087580.7      148.71471      14127.855    
    566000   566            299.44454      295.84659      299.68694     -1087519.5     -1087580.2     -1022.9474      14127.855    
    566500   566.5          304.7729       240.05871      305.84838     -1087519.7     -1087581.5      174.14918      14127.855    
    567000   567            306.56889      259.33488      307.40824     -1087518.5     -1087580.6      1161.5658      14127.855    
    567500   567.5          290.66307      295.96774      290.77895     -1087523.9     -1087582.9      2133.9192      14127.855    
    568000   568            307.48354      255.77276      308.38426     -1087517.4     -1087579.7     -2402.9884      14127.855    
    568500   568.5          296.1516       176.7901       297.96332     -1087518.1     -1087578.1     -1187.9         14127.855    
    569000   569            295.5666       267.01927      296.14517     -1087518.2     -1087578.1     -3772.8254      14127.855    
    569500   569.5          293.33011      257.31614      294.00859     -1087521.4     -1087580.9     -952.98597      14127.855    
    570000   570            305.23041      251.03341      306.16343     -1087518.4     -1087580.3      1148.6369      14127.855    
    570500   570.5          284.11088      315.93658      283.86251     -1087522.2     -1087579.8      2087.0955      14127.855    
    571000   571            295.16451      220.47296      296.36922     -1087520.4     -1087580.3     -1614.2063      14127.855    
    571500   571.5          300.8865       209.06345      302.32747     -1087518.5     -1087579.6      691.88182      14127.855    
    572000   572            315.31434      293.95681      315.80808     -1087517.6     -1087581.5     -85.143391      14127.855    
    572500   572.5          305.00225      234.3803       306.15808     -1087517.4     -1087579.3     -1982.2717      14127.855    
    573000   573            305.82062      328.55511      305.7097      -1087516.4     -1087578.4     -1022.5675      14127.855    
    573500   573.5          293.69664      371.84288      292.82568     -1087518.8     -1087578.4      527.41886      14127.855    
    574000   574            297.36577      304.71011      297.4583      -1087517.8     -1087578.1     -382.96553      14127.855    
    574500   574.5          305.49284      352.5788       305.05114     -1087516.8     -1087578.8      69.479061      14127.855    
    575000   575            298.90372      272.90995      299.4498      -1087519.4     -1087580        1091.2917      14127.855    
    575500   575.5          297.69535      256.68797      298.44444     -1087521.1     -1087581.5      1863.9009      14127.855    
    576000   576            294.70172      264.3785       295.30384     -1087518.3     -1087578.1     -968.86554      14127.855    
    576500   576.5          289.17551      332.44128      288.77511     -1087520.4     -1087579       -213.98629      14127.855    
    577000   577            295.28718      273.16897      295.7783      -1087517.2     -1087577.1      468.20858      14127.855    
    577500   577.5          304.36556      284.85082      304.82721     -1087516.6     -1087578.3      1516.3148      14127.855    
    578000   578            302.95955      250.10419      303.87288     -1087518.1     -1087579.5     -932.38839      14127.855    
    578500   578.5          301.44104      415.03144      300.09394     -1087519.9     -1087581        2237.6182      14127.855    
    579000   579            299.64906      387.3248       298.65259     -1087521.4     -1087582.2     -2238.178       14127.855    
    579500   579.5          295.23974      263.9319       295.85558     -1087516.9     -1087576.8     -681.51001      14127.855    
    580000   580            292.31652      239.46691      293.22289     -1087517.2     -1087576.5     -91.775786      14127.855    
    580500   580.5          293.43804      285.72375      293.73245     -1087518.6     -1087578.1     -1007.8775      14127.855    
    581000   581            301.79167      371.57479      301.03947     -1087517.2     -1087578.4     -1802.7029      14127.855    
    581500   581.5          301.56949      266.74106      302.23721     -1087519       -1087580.2      146.83843      14127.855    
    582000   582            297.26629      292.18771      297.52739     -1087519.7     -1087580        1534.1125      14127.855    
    582500   582.5          293.43         314.28979      293.33652     -1087523       -1087582.6     -1339.3591      14127.855    
    583000   583            300.58308      235.83753      301.65628     -1087517.6     -1087578.5      2426.1768      14127.855    
    583500   583.5          296.90783      246.44469      297.78478     -1087518.4     -1087578.6      60.419259      14127.855    
    584000   584            298.38323      287.85019      298.71909     -1087521.7     -1087582.2     -601.02451      14127.855    
    584500   584.5          299.97658      243.98954      300.9305      -1087521.2     -1087582.1     -340.57468      14127.855    
    585000   585            303.24546      253.85155      304.11198     -1087519       -1087580.5      1122.9675      14127.855    
    585500   585.5          300.56298      282.86863      300.99747     -1087518.9     -1087579.8     -944.91747      14127.855    
    586000   586            310.56946      371.38138      309.94472     -1087519.3     -1087582.3     -1666.5392      14127.855    
    586500   586.5          298.5026       410.12272      297.18035     -1087519.1     -1087579.7     -1525.1576      14127.855    
    587000   587            305.64316      291.12354      306.03783     -1087517.8     -1087579.8      271.03588      14127.855    
    587500   587.5          297.45527      426.60126      295.89443     -1087520.6     -1087581       -782.76886      14127.855    
    588000   588            299.90799      349.98939      299.42201     -1087514.5     -1087575.3      1530.768       14127.855    
    588500   588.5          289.03166      210.99809      290.27777     -1087519.4     -1087578       -2722.6493      14127.855    
    589000   589            305.35401      334.62914      305.154       -1087516.8     -1087578.7     -1688.37        14127.855    
    589500   589.5          299.42765      371.76204      298.63929     -1087520.2     -1087580.9     -3005.4756      14127.855    
    590000   590            306.38374      330.02324      306.26089     -1087522.1     -1087584.2     -534.06044      14127.855    
    590500   590.5          290.53186      280.69437      290.8532      -1087525.3     -1087584.2      663.66229      14127.855    
    591000   591            296.04122      342.54793      295.60128     -1087518.2     -1087578.3     -2866.581       14127.855    
    591500   591.5          297.49328      343.78768      297.05716     -1087519.7     -1087580.1      60.542694      14127.855    
    592000   592            312.07991      425.03271      310.74835     -1087516.7     -1087580        188.39727      14127.855    
    592500   592.5          305.12802      332.18532      304.95797     -1087518.5     -1087580.3      1005.3616      14127.855    
    593000   593            295.88288      299.89656      296.01966     -1087518.9     -1087578.9     -1392.1719      14127.855    
    593500   593.5          305.61503      289.1629       306.03592     -1087518.8     -1087580.8     -1658.0614      14127.855    
    594000   594            299.60385      255.46932      300.39663     -1087516.8     -1087577.5      2581.7879      14127.855    
    594500   594.5          301.55611      210.89835      302.98169     -1087520       -1087581.1     -137.19064      14127.855    
    595000   595            294.57604      249.71021      295.37549     -1087521.5     -1087581.2     -2405.7632      14127.855    
    595500   595.5          306.40447      217.26648      307.81255     -1087517.4     -1087579.5     -191.63689      14127.855    
    596000   596            299.45182      355.00891      298.89122     -1087518.5     -1087579.2      838.61444      14127.855    
    596500   596.5          296.28993      283.58632      296.6539      -1087520.3     -1087580.4     -973.17438      14127.855    
    597000   597            298.81534      369.73443      298.04579     -1087520.2     -1087580.8     -2363.844       14127.855    
    597500   597.5          302.25637      311.83929      302.32167     -1087517.4     -1087578.7     -468.12889      14127.855    
    598000   598            306.19017      366.04857      305.57554     -1087517.9     -1087580       -975.57703      14127.855    
    598500   598.5          299.41887      298.17901      299.62925     -1087518.8     -1087579.6     -3146.0874      14127.855    
    599000   599            303.62425      269.21706      304.28759     -1087518.9     -1087580.5      1479.8009      14127.855    
    599500   599.5          302.91427      287.47167      303.31971     -1087516.9     -1087578.4     -1052.6928      14127.855    
    600000   600            295.22764      189.88805      296.84842     -1087525.2     -1087585.1      362.72364      14127.855    
    600500   600.5          307.59929      311.08205      307.75084     -1087518       -1087580.4      1708.9586      14127.855    
    601000   601            294.34116      202.26099      295.78138     -1087517.8     -1087577.5     -516.91884      14127.855    
    601500   601.5          294.41574      335.77512      294.04461     -1087520.4     -1087580.1      166.52293      14127.855    
    602000   602            287.04766      363.61952      286.19377     -1087521.6     -1087579.9      883.61867      14127.855    
    602500   602.5          291.27843      258.80923      291.90747     -1087518.3     -1087577.4     -282.22176      14127.855    
    603000   603            295.18427      345.93644      294.68614     -1087519.5     -1087579.4      55.491309      14127.855    
    603500   603.5          290.91951      283.04063      291.21452     -1087524.4     -1087583.4     -250.28132      14127.855    
    604000   604            307.09051      267.91634      307.8208      -1087518.1     -1087580.4      1287.7834      14127.855    
    604500   604.5          297.70288      245.62468      298.60227     -1087520.6     -1087581        379.64065      14127.855    
    605000   605            300.45082      224.14886      301.68081     -1087520.1     -1087581       -3060.0061      14127.855    
    605500   605.5          297.14726      356.54674      296.53301     -1087520.8     -1087581.1     -144.64693      14127.855    
    606000   606            299.08118      366.31887      298.36179     -1087517.7     -1087578.4      698.06772      14127.855    
    606500   606.5          300.14518      333.68273      299.88393     -1087519.8     -1087580.7      2017.2504      14127.855    
    607000   607            298.96988      296.90539      299.19116     -1087517.6     -1087578.2      1955.0383      14127.855    
    607500   607.5          301.75929      324.02091      301.65216     -1087520       -1087581.2      3173.5601      14127.855    
    608000   608            308.50766      249.1894       309.51231     -1087517.3     -1087579.9      1457.3199      14127.855    
    608500   608.5          293.22185      213.62097      294.49195     -1087520.9     -1087580.4     -2566.0231      14127.855    
    609000   609            299.85715      274.92707      300.3894      -1087521.9     -1087582.7      489.49026      14127.855    
    609500   609.5          307.95909      281.14178      308.52219     -1087516.9     -1087579.4      930.16176      14127.855    
    610000   610            302.49962      300.9044       302.71681     -1087519.4     -1087580.7      2144.3929      14127.855    
    610500   610.5          291.52322      285.46635      291.79388     -1087520.1     -1087579.2     -697.69983      14127.855    
    611000   611            294.13305      231.96899      295.16704     -1087522       -1087581.6     -1335.1393      14127.855    
    611500   611.5          307.48746      354.98359      307.04148     -1087519.8     -1087582.2      1533.3749      14127.855    
    612000   612            299.08556      306.88537      299.17301     -1087520.5     -1087581.1      740.986        14127.855    
    612500   612.5          307.41285      289.05513      307.86076     -1087516.4     -1087578.8      1695.0696      14127.855    
    613000   613            300.33667      321.23539      300.24712     -1087520.5     -1087581.4      1231.4004      14127.855    
    613500   613.5          303.53123      213.57586      304.94855     -1087519.6     -1087581.2      1327.567       14127.855    
    614000   614            304.44186      287.03184      304.87499     -1087514.5     -1087576.2     -409.79144      14127.855    
    614500   614.5          300.65308      320.09432      300.58352     -1087518.6     -1087579.5     -2305.361       14127.855    
    615000   615            285.55703      266.50466      286.00025     -1087522.1     -1087580       -2620.0949      14127.855    
    615500   615.5          302.66045      208.70187      304.13155     -1087519.1     -1087580.5      264.44416      14127.855    
    616000   616            303.76921      274.31589      304.36539     -1087518.4     -1087580        1442.0294      14127.855    
    616500   616.5          291.87441      304.42838      291.89267     -1087518.6     -1087577.8     -225.02223      14127.855    
    617000   617            297.77763      323.33775      297.62315     -1087518.8     -1087579.1      292.49794      14127.855    
    617500   617.5          290.45937      321.33445      290.22801     -1087522       -1087580.9      8.1475739      14127.855    
    618000   618            294.53917      282.93927      294.88702     -1087521.9     -1087581.6     -733.26921      14127.855    
    618500   618.5          292.41325      325.84415      292.14846     -1087520.2     -1087579.5      935.58676      14127.855    
    619000   619            289.58766      257.22942      290.2141      -1087520.3     -1087579.1     -996.86126      14127.855    
    619500   619.5          302.43458      380.25884      301.57364     -1087517.2     -1087578.6     -207.29491      14127.855    
    620000   620            303.12816      357.5091       302.58591     -1087520.6     -1087582.1      954.60298      14127.855    
    620500   620.5          301.23601      357.83014      300.66249     -1087522.4     -1087583.5     -3885.3007      14127.855    
    621000   621            297.11394      315.99918      297.04963     -1087520.7     -1087581       -1220.1268      14127.855    
    621500   621.5          298.38143      310.76777      298.40617     -1087518.5     -1087579        898.96841      14127.855    
    622000   622            309.94408      252.53919      310.92368     -1087516.4     -1087579.3      1146.3939      14127.855    
    622500   622.5          308.72559      361.41366      308.20993     -1087514.4     -1087577.1     -2609.9134      14127.855    
    623000   623            299.58198      336.78585      299.27061     -1087519.3     -1087580        1355.1346      14127.855    
    623500   623.5          298.8834       191.2259       300.53801     -1087518.9     -1087579.5     -295.39411      14127.855    
    624000   624            298.65077      340.95423      298.26957     -1087518       -1087578.6     -913.16786      14127.855    
    624500   624.5          288.67213      356.933        287.93211     -1087519.3     -1087577.9     -2959.5973      14127.855    
    625000   625            289.90825      271.66844      290.34324     -1087518.3     -1087577.1     -1196.9245      14127.855    
    625500   625.5          308.14783      384.47955      307.31084     -1087521.9     -1087584.4      958.22834      14127.855    
    626000   626            298.81485      400.47109      297.62805     -1087517.6     -1087578.2      21.198688      14127.855    
    626500   626.5          306.10605      336.37517      305.89303     -1087516.9     -1087579        1537.873       14127.855    
    627000   627            297.22691      389.65008      296.16443     -1087519.2     -1087579.5     -667.61979      14127.855    
    627500   627.5          311.94974      280.73513      312.57512     -1087518.5     -1087581.7     -749.8091       14127.855    
    628000   628            290.7374       322.06771      290.50004     -1087520.7     -1087579.7     -1342.1407      14127.855    
    628500   628.5          294.446        228.55525      295.53078     -1087520.5     -1087580.2     -1317.2536      14127.855    
    629000   629            288.45863      303.40918      288.44215     -1087519.5     -1087578        273.03652      14127.855    
    629500   629.5          304.57493      242.34158      305.61661     -1087515.7     -1087577.5      0.8552095      14127.855    
    630000   630            300.80761      240.53716      301.82021     -1087522.2     -1087583.2      623.85757      14127.855    
    630500   630.5          296.94821      333.15365      296.64869     -1087520.4     -1087580.6      1148.2524      14127.855    
    631000   631            304.52385      253.52889      305.41294     -1087517.9     -1087579.6     -279.58815      14127.855    
    631500   631.5          302.43219      236.35904      303.52461     -1087519       -1087580.4      1831.5573      14127.855    
    632000   632            294.68768      261.63031      295.32692     -1087520.5     -1087580.2      739.20868      14127.855    
    632500   632.5          302.79432      251.83162      303.68185     -1087517.1     -1087578.5      1029.4718      14127.855    
    633000   633            308.77574      250.32214      309.76883     -1087516.8     -1087579.4     -1939.3585      14127.855    
    633500   633.5          305.81626      260.10205      306.6345      -1087516.1     -1087578.1      1237.6984      14127.855    
    634000   634            303.09221      329.49534      302.92972     -1087518.3     -1087579.8     -3986.8578      14127.855    
    634500   634.5          291.96562      336.36024      291.55171     -1087520.2     -1087579.4      2659.9842      14127.855    
    635000   635            294.37277      299.75304      294.49002     -1087520.4     -1087580.1     -826.3575       14127.855    
    635500   635.5          294.23625      402.97968      292.95029     -1087520.9     -1087580.6      464.86505      14127.855    
    636000   636            307.92225      282.91658      308.46074     -1087512.6     -1087575.1     -448.40417      14127.855    
    636500   636.5          297.507        259.83594      298.21068     -1087518.4     -1087578.8      489.99572      14127.855    
    637000   637            300.87541      270.19903      301.48632     -1087517.4     -1087578.5      1690.7135      14127.855    
    637500   637.5          298.65468      249.19196      299.51917     -1087519.1     -1087579.6     -638.34391      14127.855    
    638000   638            303.02553      256.52819      303.85259     -1087520.3     -1087581.7      1234.2247      14127.855    
    638500   638.5          297.80091      323.53913      297.64403     -1087519.8     -1087580.2     -2169.4281      14127.855    
    639000   639            301.31754      371.69926      300.55691     -1087518.7     -1087579.8     -1267.8713      14127.855    
    639500   639.5          312.86658      302.46697      313.20999     -1087518.5     -1087582       -1929.0651      14127.855    
    640000   640            289.45773      290.0608       289.63665     -1087519.4     -1087578.1     -253.11535      14127.855    
    640500   640.5          307.25977      245.35683      308.2987      -1087518.7     -1087581        1571.4702      14127.855    
    641000   641            298.60868      336.54376      298.28675     -1087517       -1087577.5     -7.126617       14127.855    
    641500   641.5          294.68488      269.95863      295.21101     -1087522.2     -1087582        740.82282      14127.855    
    642000   642            292.46714      249.07007      293.2453      -1087520.5     -1087579.8      1331.4499      14127.855    
    642500   642.5          297.59886      311.07162      297.60834     -1087520.1     -1087580.4     -2110.0606      14127.855    
    643000   643            294.03123      357.67553      293.35735     -1087519       -1087578.7     -1758.8361      14127.855    
    643500   643.5          300.19645      323.78838      300.07025     -1087516.8     -1087577.7     -1832.5024      14127.855    
    644000   644            297.64749      310.44951      297.66611     -1087516.5     -1087576.8      2260.0934      14127.855    
    644500   644.5          313.76968      401.28267      312.78454     -1087516.2     -1087579.8      2456.2433      14127.855    
    645000   645            301.34867      263.61243      302.05573     -1087517.2     -1087578.3      1976.3723      14127.855    
    645500   645.5          298.00161      332.95682      297.71974     -1087521.8     -1087582.3     -1489.9981      14127.855    
    646000   646            293.0615       306.23008      293.07218     -1087522.8     -1087582.3      990.82231      14127.855    
    646500   646.5          295.72578      286.62916      296.04043     -1087523.3     -1087583.2     -1606.7398      14127.855    
    647000   647            297.24634      312.4323       297.23234     -1087521.2     -1087581.5     -1243.4139      14127.855    
    647500   647.5          303.83918      316.87909      303.85857     -1087518.3     -1087580       -2134.0949      14127.855    
    648000   648            304.78554      309.21017      304.92249     -1087515.9     -1087577.7      683.58924      14127.855    
    648500   648.5          305.11245      317.79391      305.13753     -1087517.6     -1087579.5     -1687.8074      14127.855    
    649000   649            300.23064      366.21482      299.52899     -1087520.6     -1087581.5     -1814.831       14127.855    
    649500   649.5          296.8299       217.96692      298.09231     -1087519.3     -1087579.5     -637.33659      14127.855    
    650000   650            305.4343       291.11133      305.82616     -1087518       -1087579.9     -1280.2251      14127.855    
    650500   650.5          303.25306      310.5261       303.35036     -1087519.6     -1087581.1      1548.3492      14127.855    
    651000   651            292.80922      383.36029      291.76929     -1087520.6     -1087579.9      23.272028      14127.855    
    651500   651.5          290.96705      324.88045      290.69477     -1087518.3     -1087577.3      135.18865      14127.855    
    652000   652            302.49052      296.98753      302.76076     -1087517       -1087578.3      2285.5275      14127.855    
    652500   652.5          298.21595      258.59711      298.94653     -1087519.4     -1087579.9     -2101.1487      14127.855    
    653000   653            293.4727       283.07475      293.80355     -1087519.7     -1087579.2     -526.05619      14127.855    
    653500   653.5          293.50391      307.33755      293.50584     -1087521.9     -1087581.5     -385.37306      14127.855    
    654000   654            280.06627      321.83494      279.68031     -1087519.4     -1087576.2      846.877        14127.855    
    654500   654.5          303.92109      314.07425      303.97972     -1087520.3     -1087581.9      2182.3597      14127.855    
    655000   655            300.11231      311.29267      300.15453     -1087519.5     -1087580.3     -1601.5517      14127.855    
    655500   655.5          307.84545      297.39457      308.18631     -1087520       -1087582.4      190.84112      14127.855    
    656000   656            304.02456      301.751        304.25195     -1087518.5     -1087580.2     -3611.4019      14127.855    
    656500   656.5          298.06782      324.90554      297.89619     -1087520.9     -1087581.4     -751.44425      14127.855    
    657000   657            296.59576      240.38925      297.55047     -1087523       -1087583.2      241.71386      14127.855    
    657500   657.5          297.47169      242.97368      298.40377     -1087521.4     -1087581.7      1240.5537      14127.855    
    658000   658            311.83422      261.31258      312.72161     -1087517       -1087580.3      1802.4378      14127.855    
    658500   658.5          293.95969      221.87757      295.1282      -1087515.9     -1087575.5     -392.16716      14127.855    
    659000   659            301.5846       308.09643      301.69115     -1087515.7     -1087576.9      1604.0656      14127.855    
    659500   659.5          310.07016      310.75526      310.26129     -1087518.5     -1087581.4      1008.9508      14127.855    
    660000   660            303.88465      381.62657      303.02576     -1087516.8     -1087578.4      137.91895      14127.855    
    660500   660.5          294.51024      473.02423      292.27734     -1087522.5     -1087582.2     -1172.5825      14127.855    
    661000   661            302.04305      352.0817       301.55904     -1087517.2     -1087578.4     -491.01407      14127.855    
    661500   661.5          300.78019      274.3086       301.33396     -1087515.4     -1087576.5      1857.6059      14127.855    
    662000   662            299.38393      206.84612      300.83362     -1087518.9     -1087579.6      237.43793      14127.855    
    662500   662.5          304.86649      371.31122      304.1616      -1087519.6     -1087581.5     -2943.5989      14127.855    
    663000   663            300.47124      215.80111      301.81483     -1087519.3     -1087580.3     -993.33716      14127.855    
    663500   663.5          301.44076      248.41929      302.35536     -1087522.5     -1087583.6      1169.7888      14127.855    
    664000   664            308.16093      248.18387      309.17429     -1087518.1     -1087580.6     -1068.8408      14127.855    
    664500   664.5          291.17249      374.78467      290.2257      -1087523       -1087582.1      165.70449      14127.855    
    665000   665            284.00689      344.04332      283.3755      -1087521       -1087578.6      1248.4208      14127.855    
    665500   665.5          307.66585      279.94589      308.24102     -1087517.3     -1087579.7      692.9375       14127.855    
    666000   666            306.15947      247.16363      307.15823     -1087517.8     -1087579.9     -617.2145       14127.855    
    666500   666.5          301.66224      253.15002      302.51578     -1087520.7     -1087581.8      2526.7422      14127.855    
    667000   667            301.09153      299.48294      301.30799     -1087519.1     -1087580.2      260.27378      14127.855    
    667500   667.5          294.36707      322.34557      294.17756     -1087520.6     -1087580.3      2475.9746      14127.855    
    668000   668            291.07981      238.40564      291.983       -1087519.5     -1087578.6     -569.24554      14127.855    
    668500   668.5          288.50476      276.84433      288.84954     -1087523.4     -1087581.9     -1517.1825      14127.855    
    669000   669            298.64582      310.20171      298.68201     -1087518.9     -1087579.4     -1882.5362      14127.855    
    669500   669.5          294.41222      336.35037      294.03323     -1087518.2     -1087577.9      3300.0949      14127.855    
    670000   670            285.41905      249.79794      286.08709     -1087522       -1087579.9     -3050.3625      14127.855    
    670500   670.5          302.88558      277.70623      303.42317     -1087518.3     -1087579.7     -1266.6217      14127.855    
    671000   671            300.1319       194.84642      301.75512     -1087520.4     -1087581.3     -143.7759       14127.855    
    671500   671.5          294.30519      373.09703      293.42586     -1087515.3     -1087575       -50.323234      14127.855    
    672000   672            306.12174      256.04807      306.99936     -1087517.4     -1087579.5     -1542.5023      14127.855    
    672500   672.5          295.3559       310.74471      295.33792     -1087519.7     -1087579.6     -2256.3579      14127.855    
    673000   673            296.23946      381.78709      295.26967     -1087517.9     -1087578       -788.23219      14127.855    
    673500   673.5          305.18905      351.18748      304.76192     -1087515.7     -1087577.6      2302.4014      14127.855    
    674000   674            307.01047      274.08695      307.65585     -1087517.7     -1087580        94.270759      14127.855    
    674500   674.5          297.75101      234.22602      298.80581     -1087516.7     -1087577.1      3387.8779      14127.855    
    675000   675            294.28805      313.26097      294.22073     -1087522.1     -1087581.8     -2882.5022      14127.855    
    675500   675.5          305.51929      325.03693      305.45183     -1087517.2     -1087579.2     -877.36396      14127.855    
    676000   676            300.98754      294.43049      301.27111     -1087516.3     -1087577.3      533.58077      14127.855    
    676500   676.5          297.16479      393.15022      296.05391     -1087518.8     -1087579.1      3076.7834      14127.855    
    677000   677            296.56183      263.77941      297.19854     -1087520       -1087580.1     -1957.6733      14127.855    
    677500   677.5          290.74486      279.76284      291.08188     -1087523.2     -1087582.1     -362.02033      14127.855    
    678000   678            304.60766      304.72646      304.80295     -1087515.6     -1087577.3     -2812.9118      14127.855    
    678500   678.5          303.39264      440.9076       301.72204     -1087517.6     -1087579.2     -772.85682      14127.855    
    679000   679            297.83181      365.05706      297.11177     -1087517.1     -1087577.5     -1308.2789      14127.855    
    679500   679.5          296.15534      223.74983      297.32966     -1087515       -1087575.1     -1062.6273      14127.855    
    680000   680            298.71924      243.82573      299.6575      -1087518.5     -1087579.1      1123.0032      14127.855    
    680500   680.5          282.14532      296.21256      282.13674     -1087520       -1087577.2     -318.73662      14127.855    
    681000   681            295.29035      279.64599      295.6936      -1087518.9     -1087578.8     -1671.0993      14127.855    
    681500   681.5          302.12349      247.56478      303.0594      -1087520.6     -1087581.8      1249.2022      14127.855    
    682000   682            299.08386      370.04695      298.31389     -1087518.1     -1087578.7      249.77622      14127.855    
    682500   682.5          294.2202       291.56849      294.44639     -1087521.7     -1087581.4     -1908.064       14127.855    
    683000   683            302.44126      418.72656      301.05823     -1087517.7     -1087579.1      567.76245      14127.855    
    683500   683.5          309.90071      307.81967      310.12928     -1087516       -1087578.9     -135.45289      14127.855    
    684000   684            306.1522       326.40421      306.07518     -1087516.7     -1087578.8     -888.24578      14127.855    
    684500   684.5          293.48135      270.35888      293.98494     -1087520.3     -1087579.9     -649.25059      14127.855    
    685000   685            310.55447      251.91045      311.55129     -1087518.1     -1087581       -4098.6747      14127.855    
    685500   685.5          303.07703      279.34869      303.59504     -1087519.2     -1087580.7      561.31411      14127.855    
    686000   686            291.91782      316.18078      291.77716     -1087520.9     -1087580.1     -144.17671      14127.855    
    686500   686.5          305.82499      289.20224      306.24833     -1087517.9     -1087579.9     -443.03988      14127.855    
    687000   687            315.61855      240.00171      316.84904     -1087517.8     -1087581.8     -1872.8466      14127.855    
    687500   687.5          295.44694      343.83104      294.98113     -1087519.5     -1087579.4     -98.500847      14127.855    
    688000   688            301.51206      299.20797      301.73824     -1087517.3     -1087578.4      619.90846      14127.855    
    688500   688.5          299.31661      329.55301      299.09964     -1087519.8     -1087580.5     -1428.5213      14127.855    
    689000   689            296.44638      266.05822      297.05052     -1087516.8     -1087577        658.78445      14127.855    
    689500   689.5          307.98566      224.25106      309.32141     -1087519.2     -1087581.7      989.03617      14127.855    
    690000   690            304.68122      246.91281      305.66236     -1087518.7     -1087580.5     -1366.0053      14127.855    
    690500   690.5          298.96044      396.36303      297.83148     -1087516.4     -1087577.1      338.98044      14127.855    
    691000   691            299.72899      355.76031      299.16213     -1087522.1     -1087582.9      1976.5747      14127.855    
    691500   691.5          302.68499      331.86013      302.48461     -1087517       -1087578.4     -2323.9992      14127.855    
    692000   692            307.2855       242.82325      308.35918     -1087516.6     -1087578.9      889.78847      14127.855    
    692500   692.5          299.55282      318.23773      299.49281     -1087522.6     -1087583.3     -1654.0777      14127.855    
    693000   693            300.98677      302.7295       301.15768     -1087521.3     -1087582.3      2500.3259      14127.855    
    693500   693.5          296.36586      289.18064      296.65497     -1087517.2     -1087577.3      999.04619      14127.855    
    694000   694            292.58885      321.08896      292.3911      -1087522.7     -1087582.1     -773.06499      14127.855    
    694500   694.5          288.23768      275.36109      288.5988      -1087522.3     -1087580.8     -465.96497      14127.855    
    695000   695            296.52883      242.17366      297.45836     -1087520.5     -1087580.6      598.60019      14127.855    
    695500   695.5          304.68272      396.16744      303.6378      -1087519.6     -1087581.4      3087.034       14127.855    
    696000   696            295.69507      337.54624      295.3181      -1087519.6     -1087579.6      1509.8099      14127.855    
    696500   696.5          301.04765      281.7241       301.50456     -1087521.5     -1087582.5      1961.3656      14127.855    
    697000   697            291.52526      250.36736      292.27241     -1087523.8     -1087582.9     -1582.2433      14127.855    
    697500   697.5          304.7912       273.34989      305.41502     -1087522.1     -1087583.9      310.75937      14127.855    
    698000   698            309.90226      209.07261      311.47131     -1087521.6     -1087584.4      2066.0845      14127.855    
    698500   698.5          309.00179      317.79729      309.08213     -1087519.2     -1087581.9      213.38019      14127.855    
    699000   699            305.02533      334.63766      304.82052     -1087518.4     -1087580.3     -433.36566      14127.855    
    699500   699.5          302.56827      386.51251      301.62434     -1087517.8     -1087579.2      2921.7055      14127.855    
    700000   700            295.16407      297.81944      295.31882     -1087518.1     -1087578        23.454045      14127.855    
    700500   700.5          297.32531      325.60877      297.13356     -1087519       -1087579.3     -1846.1349      14127.855    
    701000   701            307.89091      366.54605      307.29371     -1087518.8     -1087581.2      208.38663      14127.855    
    701500   701.5          316.78453      241.58936      318.01005     -1087518.2     -1087582.5      1543.302       14127.855    
    702000   702            298.94686      418.30551      297.51985     -1087518.6     -1087579.3      2446.4989      14127.855    
    702500   702.5          298.77294      274.1405       299.30044     -1087520.2     -1087580.8     -2808.1383      14127.855    
    703000   703            293.76616      190.66297      295.35565     -1087523.8     -1087583.4     -860.11799      14127.855    
    703500   703.5          303.30233      222.22797      304.59894     -1087519       -1087580.5      111.14873      14127.855    
    704000   704            300.51708      310.71889      300.57286     -1087520.6     -1087581.5     -816.60727      14127.855    
    704500   704.5          298.10915      324.33941      297.94578     -1087519.6     -1087580.1     -1745.069       14127.855    
    705000   705            299.75134      189.63161      301.43994     -1087517.5     -1087578.3     -499.38566      14127.855    
    705500   705.5          300.00412      390.43181      298.97052     -1087519.2     -1087580.1      2290.4715      14127.855    
    706000   706            298.18977      342.07954      297.78673     -1087520.7     -1087581.2      2027.8093      14127.855    
    706500   706.5          296.00228      233.08132      297.04775     -1087519.2     -1087579.3      1117.7243      14127.855    
    707000   707            301.18972      324.52936      301.06759     -1087519.7     -1087580.8     -539.90418      14127.855    
    707500   707.5          293.64475      274.24926      294.09785     -1087519.1     -1087578.7      2220.3893      14127.855    
    708000   708            302.62583      271.37567      303.24566     -1087519.1     -1087580.4     -633.61561      14127.855    
    708500   708.5          312.07552      272.30129      312.81717     -1087514       -1087577.3     -1439.3465      14127.855    
    709000   709            298.65873      279.42222      299.11291     -1087519.5     -1087580.1      862.25307      14127.855    
    709500   709.5          305.10627      350.17274      304.69174     -1087518.6     -1087580.4     -1784.9575      14127.855    
    710000   710            297.81483      379.25285      296.90185     -1087519.5     -1087579.9     -1160.4224      14127.855    
    710500   710.5          297.44468      369.96412      296.65252     -1087516.6     -1087576.9     -867.52762      14127.855    
    711000   711            291.00073      249.579        291.75112     -1087522.2     -1087581.2      656.76113      14127.855    
    711500   711.5          286.05683      225.23075      287.06744     -1087520.3     -1087578.3     -1335.4564      14127.855    
    712000   712            290.01109      367.97689      289.1402      -1087518.9     -1087577.7     -896.8395       14127.855    
    712500   712.5          302.74325      312.73183      302.80335     -1087521.2     -1087582.6     -1412.1025      14127.855    
    713000   713            300.31849      341.8452       299.9489      -1087522.9     -1087583.8     -2774.5339      14127.855    
    713500   713.5          293.54308      355.27668      292.89482     -1087519       -1087578.5     -4941.6618      14127.855    
    714000   714            307.86219      303.81827      308.11609     -1087519.2     -1087581.6     -351.85222      14127.855    
    714500   714.5          294.09687      173.30433      295.9267      -1087522       -1087581.7      2906.3724      14127.855    
    715000   715            305.26592      361.55303      304.69917     -1087519.6     -1087581.5     -2364.4825      14127.855    
    715500   715.5          297.59361      390.51476      296.52461     -1087523.1     -1087583.5     -1844.9175      14127.855    
    716000   716            292.82773      366.32737      292.01928     -1087520.2     -1087579.6      1506.9516      14127.855    
    716500   716.5          301.05131      349.52379      300.58791     -1087521.6     -1087582.6     -289.5968       14127.855    
    717000   717            310.05404      416.65212      308.80743     -1087520       -1087582.8     -442.32912      14127.855    
    717500   717.5          293.93617      294.05283      294.12459     -1087519.6     -1087579.2     -270.27583      14127.855    
    718000   718            303.50425      247.09826      304.46613     -1087518.9     -1087580.4     -2027.4164      14127.855    
    718500   718.5          297.82422      261.52405      298.5095      -1087519.5     -1087579.9     -411.91787      14127.855    
    719000   719            309.27127      342.12054      309.02527     -1087516       -1087578.7      1347.1328      14127.855    
    719500   719.5          297.50843      174.65921      299.36838     -1087515.2     -1087575.6      33.327068      14127.855    
    720000   720            301.15185      324.61802      301.02797     -1087518.2     -1087579.3      3442.3952      14127.855    
    720500   720.5          288.80188      253.96058      289.46152     -1087518.5     -1087577.1     -1020.008       14127.855    
    721000   721            297.79659      285.52291      298.1557      -1087517.8     -1087578.2     -3290.2417      14127.855    
    721500   721.5          297.85957      336.19782      297.53169     -1087516.3     -1087576.7     -505.49531      14127.855    
    722000   722            312.25802      332.06541      312.19099     -1087514.3     -1087577.6     -404.364        14127.855    
    722500   722.5          300.80789      351.09113      300.31976     -1087520.4     -1087581.5      1474.38        14127.855    
    723000   723            293.084        274.19773      293.52982     -1087519.6     -1087579       -1433.074       14127.855    
    723500   723.5          299.05157      298.59126      299.25113     -1087519.7     -1087580.3      2383.3898      14127.855    
    724000   724            291.74903      275.35243      292.1602      -1087517       -1087576.2     -282.10815      14127.855    
    724500   724.5          306.37427      363.38546      305.7984      -1087515.3     -1087577.4     -822.62946      14127.855    
    725000   725            300.78668      336.45156      300.49698     -1087517.9     -1087578.9     -876.63834      14127.855    
    725500   725.5          294.84713      301.26022      294.95067     -1087519.7     -1087579.5     -799.1788       14127.855    
    726000   726            302.66694      274.13883      303.24985     -1087514.3     -1087575.7     -0.44318938     14127.855    
    726500   726.5          298.30134      252.22317      299.11966     -1087518.3     -1087578.8     -41.799379      14127.855    
    727000   727            310.28169      298.06114      310.64815     -1087515.2     -1087578.1     -811.8744       14127.855    
    727500   727.5          290.11373      308.29093      290.05451     -1087519.8     -1087578.7     -814.60184      14127.855    
    728000   728            291.01343      284.94818      291.28388     -1087520.2     -1087579.2      1132.4071      14127.855    
    728500   728.5          313.84697      273.06928      314.60339     -1087518.3     -1087582        921.52497      14127.855    
    729000   729            295.95424      258.91668      296.64832     -1087521.3     -1087581.3      1528.4412      14127.855    
    729500   729.5          304.10889      262.26644      304.87346     -1087517.6     -1087579.3      1431.7727      14127.855    
    730000   730            309.38185      280.71977      309.97092     -1087516.4     -1087579.1      1104.8491      14127.855    
    730500   730.5          303.43505      376.0952       302.64485     -1087518.8     -1087580.3     -443.65691      14127.855    
    731000   731            297.63435      224.45606      298.82012     -1087518.8     -1087579.2      1854.9906      14127.855    
    731500   731.5          300.76663      366.69759      300.06606     -1087519       -1087580        1615.2586      14127.855    
    732000   732            304.87088      361.19973      304.3033      -1087519.9     -1087581.8     -268.13882      14127.855    
    732500   732.5          301.56701      323.19628      301.46834     -1087521.9     -1087583.1     -3210.4049      14127.855    
    733000   733            304.76985      305.89838      304.95154     -1087520.3     -1087582.1      2652.0662      14127.855    
    733500   733.5          319.38636      439.61989      317.96069     -1087517.1     -1087581.9      2183.1001      14127.855    
    734000   734            301.40072      365.77024      300.72176     -1087516.4     -1087577.6      1618.9027      14127.855    
    734500   734.5          308.06763      306.54959      308.28738     -1087516.4     -1087578.9     -889.05443      14127.855    
    735000   735            300.98501      278.48852      301.48495     -1087516.8     -1087577.9      1479.9584      14127.855    
    735500   735.5          287.58094      312.22498      287.4323      -1087520.5     -1087578.9     -1213.852       14127.855    
    736000   736            299.03324      288.81542      299.36524     -1087517.5     -1087578.2      147.47469      14127.855    
    736500   736.5          307.61209      247.21244      308.63084     -1087518.8     -1087581.1      1326.8328      14127.855    
    737000   737            292.39446      293.90703      292.56293     -1087517.9     -1087577.2     -1972.5555      14127.855    
    737500   737.5          289.59701      232.08883      290.56486     -1087519.6     -1087578.3      169.58699      14127.855    
    738000   738            293.14015      324.97491      292.89749     -1087520.7     -1087580.1      288.29884      14127.855    
    738500   738.5          304.0451       354.04781      303.56287     -1087518.2     -1087579.9     -2391.4777      14127.855    
    739000   739            294.9918       307.94679      295.00662     -1087522.3     -1087582.2     -1531.7626      14127.855    
    739500   739.5          296.24144      247.46089      297.09512     -1087519.7     -1087579.8     -564.67946      14127.855    
    740000   740            295.16334      198.9967       296.65957     -1087521.3     -1087581.2      1180.8252      14127.855    
    740500   740.5          302.13203      333.55174      301.90082     -1087518.1     -1087579.4      674.29712      14127.855    
    741000   741            300.69129      337.2889       300.38886     -1087515.6     -1087576.6      4148.9973      14127.855    
    741500   741.5          301.80914      236.17114      302.89525     -1087518.3     -1087579.5     -21.784609      14127.855    
    742000   742            299.07193      291.07685      299.37378     -1087519.2     -1087579.9      701.87522      14127.855    
    742500   742.5          306.40069      378.12392      305.62513     -1087520.3     -1087582.4      541.46088      14127.855    
    743000   743            302.90675      361.95942      302.30093     -1087518.3     -1087579.8     -3031.3927      14127.855    
    743500   743.5          294.55629      301.55647      294.65167     -1087521.8     -1087581.6     -766.97745      14127.855    
    744000   744            299.64417      406.24613      298.39078     -1087520.7     -1087581.5      58.232848      14127.855    
    744500   744.5          305.95075      311.63579      306.07135     -1087519.4     -1087581.4      1937.3728      14127.855    
    745000   745            306.86626      318.65943      306.90454     -1087516.7     -1087578.9     -2070.8968      14127.855    
    745500   745.5          313.70554      366.71891      313.18869     -1087516.2     -1087579.8      515.44163      14127.855    
    746000   746            300.976        330.24471      300.77324     -1087520.9     -1087581.9     -1957.5615      14127.855    
    746500   746.5          291.4444       390.87096      290.28312     -1087520.7     -1087579.8     -457.80628      14127.855    
    747000   747            298.20052      280.67571      298.63117     -1087517.3     -1087577.8     -2437.5638      14127.855    
    747500   747.5          303.17103      345.67512      302.79002     -1087516.8     -1087578.3     -1473.2632      14127.855    
    748000   748            291.99159      278.79925      292.35942     -1087520.5     -1087579.7      1214.0474      14127.855    
    748500   748.5          298.49705      239.43942      299.49169     -1087519.9     -1087580.4     -1367.9778      14127.855    
    749000   749            297.54306      352.84035      296.98475     -1087518.8     -1087579.2     -2186.5501      14127.855    
    749500   749.5          305.64318      328.06688      305.53636     -1087516       -1087578        377.90522      14127.855    
    750000   750            301.62674      306.47397      301.75591     -1087521.7     -1087582.9      247.30655      14127.855    
    750500   750.5          306.36884      249.53965      307.33831     -1087519.1     -1087581.2     -1964.1719      14127.855    
    751000   751            303.93874      351.18703      303.49383     -1087519.6     -1087581.2      1353.1114      14127.855    
    751500   751.5          296.45992      327.95534      296.22401     -1087521.4     -1087581.6     -517.55103      14127.855    
    752000   752            286.20902      346.00159      285.58237     -1087521.8     -1087579.9      722.67936      14127.855    
    752500   752.5          290.23278      399.31912      288.93958     -1087522.9     -1087581.8      409.65277      14127.855    
    753000   753            301.19436      285.12344      301.60721     -1087517.1     -1087578.2     -1156.1017      14127.855    
    753500   753.5          313.07165      220.57832      314.52959     -1087516.1     -1087579.6      2190.6135      14127.855    
    754000   754            296.8598       319.04898      296.75048     -1087520.1     -1087580.3      813.08245      14127.855    
    754500   754.5          298.23004      334.1759       297.93486     -1087518.5     -1087579        285.4336       14127.855    
    755000   755            301.25225      238.13461      302.30378     -1087520.3     -1087581.4      42.701279      14127.855    
    755500   755.5          286.17807      323.54362      285.85584     -1087520.4     -1087578.4      1596.9788      14127.855    
    756000   756            292.38349      324.2297       292.14018     -1087521.8     -1087581.1      7.7256109      14127.855    
    756500   756.5          299.39035      344.39968      298.9729      -1087520.2     -1087580.9     -1317.8955      14127.855    
    757000   757            300.47567      317.06089      300.44476     -1087518.4     -1087579.3     -1717.8728      14127.855    
    757500   757.5          313.20254      428.81032      311.83567     -1087517.3     -1087580.8     -1232.4636      14127.855    
    758000   758            305.47982      238.07124      306.59233     -1087516.1     -1087578       -2615.6255      14127.855    
    758500   758.5          304.13325      325.99396      304.0331      -1087519.8     -1087581.5      216.28912      14127.855    
    759000   759            301.85081      233.44769      302.97448     -1087518.8     -1087580        148.36145      14127.855    
    759500   759.5          300.92945      278.07677      301.4342      -1087520.9     -1087582       -758.03913      14127.855    
    760000   760            289.0592       263.63607      289.59117     -1087519.4     -1087578       -330.81005      14127.855    
    760500   760.5          315.21332      298.97458      315.63751     -1087516.7     -1087580.6      747.96297      14127.855    
    761000   761            303.56907      275.77125      304.14265     -1087517.8     -1087579.4     -3771.5017      14127.855    
    761500   761.5          299.09738      235.96247      300.14775     -1087519       -1087579.6     -600.31754      14127.855    
    762000   762            300.28203      229.60972      301.43549     -1087516.7     -1087577.6      1897.9554      14127.855    
    762500   762.5          303.79955      352.05701      303.34085     -1087515.3     -1087576.9      1483.5044      14127.855    
    763000   763            300.12385      269.3297       300.73587     -1087518.9     -1087579.8      94.009804      14127.855    
    763500   763.5          303.68886      297.5688       303.96824     -1087519.9     -1087581.4     -750.7039       14127.855    
    764000   764            299.78246      272.92055      300.34089     -1087518.4     -1087579.2     -1475.7628      14127.855    
    764500   764.5          314.86297      492.81611      312.65085     -1087514.7     -1087578.5      1189.0717      14127.855    
    765000   765            299.91018      297.43838      300.1376      -1087517.3     -1087578.2     -687.12772      14127.855    
    765500   765.5          289.49523      325.88994      289.18831     -1087519.2     -1087577.9     -408.79309      14127.855    
    766000   766            292.42556      294.6934       292.5838      -1087519.6     -1087578.9     -686.53844      14127.855    
    766500   766.5          298.70546      251.66499      299.5371      -1087517.8     -1087578.4     -535.19637      14127.855    
    767000   767            303.37942      287.1781       303.79546     -1087516       -1087577.5     -199.16958      14127.855    
    767500   767.5          301.67882      363.64859      301.03261     -1087517       -1087578.2     -3101.4163      14127.855    
    768000   768            293.25954      270.14066      293.76294     -1087522.1     -1087581.6     -1162.9576      14127.855    
    768500   768.5          296.75207      295.86638      296.95591     -1087521.2     -1087581.4     -2633.8533      14127.855    
    769000   769            307.60036      292.53202      308.00374     -1087516.6     -1087579       -1769.0879      14127.855    
    769500   769.5          302.76668      312.39443      302.8317      -1087515.3     -1087576.7     -78.095398      14127.855    
    770000   770            299.78368      241.15813      300.77329     -1087517.5     -1087578.3     -1331.8715      14127.855    
    770500   770.5          306.54801      290.97314      306.95759     -1087517.3     -1087579.5      850.96863      14127.855    
    771000   771            302.86921      285.77458      303.29704     -1087518.3     -1087579.7     -1619.8098      14127.855    
    771500   771.5          291.74169      274.07279      292.17013     -1087520.8     -1087579.9      1098.3327      14127.855    
    772000   772            298.77889      194.71229      300.38469     -1087519.8     -1087580.4     -2519.7759      14127.855    
    772500   772.5          307.06108      277.61537      307.65928     -1087516.8     -1087579.1     -1042.2768      14127.855    
    773000   773            290.09903      235.45386      291.02835     -1087521.8     -1087580.7     -2836.8285      14127.855    
    773500   773.5          300.25576      353.72801      299.72398     -1087521.2     -1087582.1      2431.6045      14127.855    
    774000   774            298.40246      336.69924      298.07549     -1087519.9     -1087580.4      902.64684      14127.855    
    774500   774.5          293.26501      363.19639      292.50528     -1087521.9     -1087581.4      787.1969       14127.855    
    775000   775            302.5508       239.83476      303.59773     -1087518.6     -1087580       -655.63292      14127.855    
    775500   775.5          299.10407      293.56569      299.37259     -1087519.8     -1087580.5     -437.98466      14127.855    
    776000   776            303.17954      242.72099      304.19623     -1087516.6     -1087578.1      1942.7438      14127.855    
    776500   776.5          311.35167      342.82354      311.12572     -1087515.7     -1087578.8      1313.4038      14127.855    
    777000   777            287.28731      262.56861      287.80856     -1087520.8     -1087579.1      1783.5609      14127.855    
    777500   777.5          307.2992       410.5498       306.09625     -1087517.5     -1087579.8      191.87671      14127.855    
    778000   778            296.28882      351.35943      295.73278     -1087518.7     -1087578.8      784.05027      14127.855    
    778500   778.5          305.1072       251.25201      306.0355      -1087519.1     -1087581        276.8447       14127.855    
    779000   779            304.06738      243.79001      305.08218     -1087515       -1087576.7     -1459.9961      14127.855    
    779500   779.5          311.41724      352.53882      311.06033     -1087515       -1087578.2     -1659.1572      14127.855    
    780000   780            300.40678      260.53905      301.14216     -1087514.3     -1087575.2     -1.1158675      14127.855    
    780500   780.5          298.04084      315.82971      297.99202     -1087517.4     -1087577.8     -3143.4193      14127.855    
    781000   781            301.8254       341.69308      301.47932     -1087517.4     -1087578.7     -1832.7452      14127.855    
    781500   781.5          307.06577      347.2305       306.71904     -1087515.2     -1087577.5     -257.20844      14127.855    
    782000   782            290.72703      221.71845      291.85173     -1087520.1     -1087579       -562.04136      14127.855    
    782500   782.5          294.42054      307.40804      294.43456     -1087521.1     -1087580.8      2594.2989      14127.855    
    783000   783            302.15605      320.61845      302.10074     -1087517       -1087578.2     -704.42043      14127.855    
    783500   783.5          303.13042      243.50502      304.13576     -1087519.6     -1087581       -567.26021      14127.855    
    784000   784            302.57787      238.3319       303.64557     -1087516.9     -1087578.2      420.78644      14127.855    
    784500   784.5          303.31169      264.32135      304.03703     -1087519.6     -1087581.1      997.12387      14127.855    
    785000   785            297.2559       310.48275      297.2685      -1087519       -1087579.3     -2662.0525      14127.855    
    785500   785.5          292.6894       374.26787      291.7712      -1087521.6     -1087580.9      249.78048      14127.855    
    786000   786            305.84389      233.70545      307.02084     -1087514.9     -1087576.9     -311.01648      14127.855    
[...]
   5431000   5431           315.08834      329.46046      315.09692     -1087517.4     -1087581.3      2654.213       14127.855    
   5431500   5431.5         306.42863      259.32132      307.26618     -1087519.1     -1087581.3     -720.53357      14127.855    
   5432000   5432           302.98775      251.51509      303.88233     -1087521       -1087582.4     -1756.4287      14127.855    
   5432500   5432.5         310.15441      339.0772       309.96228     -1087517.3     -1087580.2     -1796.1295      14127.855    
   5433000   5433           304.69828      267.78212      305.39637     -1087518.6     -1087580.4      1539.1711      14127.855    
   5433500   5433.5         309.30642      278.06297      309.93048     -1087520.7     -1087583.4     -2908.3269      14127.855    
   5434000   5434           291.15218      265.76019      291.68507     -1087521.7     -1087580.8      524.79651      14127.855    
   5434500   5434.5         296.88195      287.37822      297.20286     -1087520.2     -1087580.4      209.30086      14127.855    
   5435000   5435           312.11285      312.79969      312.30528     -1087514.8     -1087578.1     -169.27571      14127.855    
   5435500   5435.5         291.93259      231.19975      292.94573     -1087519       -1087578.2     -993.74263      14127.855    
   5436000   5436           298.3152       266.34062      298.94208     -1087519.3     -1087579.8     -666.34685      14127.855    
   5436500   5436.5         295.00737      396.66499      293.8181      -1087520       -1087579.8      74.150308      14127.855    
   5437000   5437           296.38432      380.91508      295.42843     -1087519.7     -1087579.8     -1025.9123      14127.855    
   5437500   5437.5         302.0031       314.63556      302.02684     -1087519.9     -1087581.2     -96.713761      14127.855    
   5438000   5438           312.17264      437.6339       310.67134     -1087515.9     -1087579.2      954.00216      14127.855    
   5438500   5438.5         306.96307      253.09625      307.89272     -1087515.8     -1087578        1290.7426      14127.855    
   5439000   5439           310.46451      303.28039      310.76272     -1087517.8     -1087580.7     -1142.1707      14127.855    
   5439500   5439.5         302.4261       292.24744      302.75976     -1087521.5     -1087582.8     -149.33923      14127.855    
   5440000   5440           295.83867      350.89714      295.2825      -1087519.3     -1087579.3     -2047.1538      14127.855    
   5440500   5440.5         304.27284      321.42561      304.23669     -1087515.2     -1087576.9     -1534.6951      14127.855    
   5441000   5441           300.44665      346.12626      300.02078     -1087515.2     -1087576.1     -184.56404      14127.855    
   5441500   5441.5         298.39751      358.72442      297.77148     -1087520.5     -1087581        1157.8675      14127.855    
   5442000   5442           293.09265      301.18564      293.17225     -1087520.4     -1087579.9      863.29453      14127.855    
   5442500   5442.5         303.711        270.92275      304.35242     -1087516       -1087577.6     -1223.6358      14127.855    
   5443000   5443           296.84682      387.08101      295.81381     -1087517.2     -1087577.4     -568.74883      14127.855    
   5443500   5443.5         304.68369      303.14891      304.90148     -1087513.2     -1087575        397.18372      14127.855    
   5444000   5444           307.39262      247.52988      308.40393     -1087518       -1087580.3      1245.7948      14127.855    
   5444500   5444.5         305.38911      251.38406      306.31962     -1087516.9     -1087578.9      2278.3006      14127.855    
   5445000   5445           304.37318      299.113        304.64134     -1087518.8     -1087580.5      2415.1228      14127.855    
   5445500   5445.5         307.55602      228.76422      308.8244      -1087516.9     -1087579.2      1535.9871      14127.855    
   5446000   5446           297.52583      260.36824      298.22255     -1087518.1     -1087578.4     -1254.5821      14127.855    
   5446500   5446.5         296.63858      265.73324      297.24986     -1087518.2     -1087578.4     -526.33644      14127.855    
   5447000   5447           307.63605      374.26662      306.93043     -1087513.6     -1087576        1705.7396      14127.855    
   5447500   5447.5         307.98074      329.22065      307.8915      -1087515.3     -1087577.8      1785.9687      14127.855    
   5448000   5448           302.45162      456.68245      300.5535      -1087517.4     -1087578.8      2444.1517      14127.855    
   5448500   5448.5         289.87688      210.7603       291.13825     -1087519.4     -1087578.2     -849.21544      14127.855    
   5449000   5449           294.37285      251.24216      295.14862     -1087519       -1087578.7     -957.54833      14127.855    
   5449500   5449.5         308.93893      297.30316      309.29659     -1087515.4     -1087578       -177.49439      14127.855    
   5450000   5450           297.75406      331.4573       297.48902     -1087516       -1087576.3     -3388.8431      14127.855    
   5450500   5450.5         301.63285      233.26531      302.75589     -1087517.6     -1087578.8     -1740.1483      14127.855    
   5451000   5451           311.23979      328.80492      311.20254     -1087514.8     -1087577.9      124.73177      14127.855    
   5451500   5451.5         302.14684      330.05836      301.96326     -1087518.8     -1087580.1      933.97704      14127.855    
   5452000   5452           312.76656      399.51924      311.7911      -1087514.5     -1087577.9     -2949.1254      14127.855    
   5452500   5452.5         301.51672      291.17153      301.85206     -1087517       -1087578.2      1143.8048      14127.855    
   5453000   5453           298.79074      295.58938      299.02734     -1087519.9     -1087580.5     -1761.2074      14127.855    
   5453500   5453.5         306.40272      426.05342      304.97656     -1087518.5     -1087580.7     -800.88299      14127.855    
   5454000   5454           297.31763      290.2749       297.60542     -1087517       -1087577.3      1765.1068      14127.855    
   5454500   5454.5         303.57461      349.11425      303.15266     -1087518       -1087579.5     -1488.9146      14127.855    
   5455000   5455           302.95814      275.30522      303.52935     -1087517.5     -1087578.9      1312.5099      14127.855    
   5455500   5455.5         301.99991      257.89047      302.79389     -1087517       -1087578.3     -219.09865      14127.855    
   5456000   5456           298.33967      239.81889      299.32692     -1087518.9     -1087579.4      2971.9711      14127.855    
   5456500   5456.5         300.73599      294.4751       301.01537     -1087519.1     -1087580.1     -1700.2443      14127.855    
   5457000   5457           294.50646      325.10948      294.28141     -1087521       -1087580.7     -2755.1295      14127.855    
   5457500   5457.5         305.77899      290.11688      306.18926     -1087520.1     -1087582.1     -108.83137      14127.855    
   5458000   5458           295.67959      298.36726      295.83424     -1087516.4     -1087576.4     -152.14687      14127.855    
   5458500   5458.5         299.89426      248.11783      300.79097     -1087520.1     -1087581        107.941        14127.855    
   5459000   5459           296.58629      345.14315      296.11887     -1087521       -1087581.2     -2550.9         14127.855    
   5459500   5459.5         295.67226      288.79508      295.95674     -1087523.9     -1087583.9     -3628.066       14127.855    
   5460000   5460           297.17308      250.3431       298.00088     -1087520.8     -1087581.1      1302.1926      14127.855    
   5460500   5460.5         303.92923      245.47857      304.91914     -1087514.9     -1087576.6     -2517.7997      14127.855    
   5461000   5461           299.00292      345.33868      298.5672      -1087518.6     -1087579.2      124.75202      14127.855    
   5461500   5461.5         294.15127      340.6968       293.70957     -1087517.3     -1087577       -325.18286      14127.855    
   5462000   5462           301.0865       298.25625      301.31955     -1087514.7     -1087575.8      4290.1997      14127.855    
   5462500   5462.5         296.48899      302.00812      296.60573     -1087519.2     -1087579.3     -32.880709      14127.855    
   5463000   5463           299.86635      296.86488      300.10093     -1087517.7     -1087578.5     -517.63932      14127.855    
   5463500   5463.5         297.78818      312.75092      297.77756     -1087517.7     -1087578.1     -2498.0921      14127.855    
   5464000   5464           301.02508      248.0931       301.9382      -1087518.3     -1087579.4      1418.1739      14127.855    
   5464500   5464.5         304.76418      291.08331      305.1469      -1087517       -1087578.8     -1098.9311      14127.855    
   5465000   5465           303.42063      262.10195      304.17765     -1087519       -1087580.5     -1673.6658      14127.855    
   5465500   5465.5         300.36917      276.47451      300.8877      -1087524.5     -1087585.4     -2205.741       14127.855    
   5466000   5466           310.32743      281.23891      310.9229      -1087516.7     -1087579.6     -995.36152      14127.855    
   5466500   5466.5         302.35136      321.58095      302.28577     -1087518.2     -1087579.5      1614.9028      14127.855    
   5467000   5467           292.15287      321.27035      291.94646     -1087521.2     -1087580.5      1471.465       14127.855    
   5467500   5467.5         302.0022       340.52892      301.67443     -1087519.1     -1087580.3     -1817.9483      14127.855    
   5468000   5468           311.19835      342.33622      310.97682     -1087512.6     -1087575.7      2020.8986      14127.855    
   5468500   5468.5         303.58018      275.73207      304.15445     -1087518.8     -1087580.4     -1686.5597      14127.855    
   5469000   5469           297.39322      249.52051      298.23532     -1087521.1     -1087581.4     -1457.3097      14127.855    
   5469500   5469.5         298.52348      278.15544      298.99294     -1087520.3     -1087580.8     -816.96251      14127.855    
   5470000   5470           295.51556      301.69549      295.62269     -1087520.3     -1087580.2      2776.7218      14127.855    
   5470500   5470.5         303.77074      321.64515      303.72446     -1087516.4     -1087578        1392.6718      14127.855    
   5471000   5471           302.31565      305.24004      302.47138     -1087518.3     -1087579.6      223.2669       14127.855    
   5471500   5471.5         295.93711      330.61498      295.65767     -1087519.4     -1087579.4     -857.06646      14127.855    
   5472000   5472           295.21316      314.81455      295.13791     -1087519.5     -1087579.4      1625.2076      14127.855    
   5472500   5472.5         310.30191      241.84508      311.43178     -1087515.3     -1087578.3      978.44259      14127.855    
   5473000   5473           290.37548      335.87788      289.9455      -1087519.6     -1087578.5      1330.7123      14127.855    
   5473500   5473.5         301.64479      336.03562      301.37294     -1087520       -1087581.2     -674.20813      14127.855    
   5474000   5474           287.20092      285.04366      287.41586     -1087522.5     -1087580.7     -833.32757      14127.855    
   5474500   5474.5         302.13483      236.75287      303.21767     -1087518.9     -1087580.2      3337.3758      14127.855    
   5475000   5475           297.52241      274.6101       298.02575     -1087520.9     -1087581.3      1881.1142      14127.855    
   5475500   5475.5         304.48746      386.32549      303.57336     -1087518.5     -1087580.3     -257.05255      14127.855    
   5476000   5476           302.38805      364.14003      301.74525     -1087518.7     -1087580        738.65579      14127.855    
   5476500   5476.5         301.84279      235.24039      302.94201     -1087517.9     -1087579.1     -2227.1064      14127.855    
   5477000   5477           295.05924      282.4848       295.42067     -1087524.1     -1087584        814.4695       14127.855    
   5477500   5477.5         309.73768      367.38492      309.15535     -1087519.6     -1087582.4      318.51804      14127.855    
   5478000   5478           299.25449      340.86867      298.88304     -1087519.3     -1087580        750.54474      14127.855    
   5478500   5478.5         294.12568      363.45141      293.37474     -1087522       -1087581.6     -1036.1188      14127.855    
   5479000   5479           294.65012      274.24884      295.11753     -1087520.8     -1087580.5     -1798.9573      14127.855    
   5479500   5479.5         311.23232      300.5644       311.57832     -1087519.7     -1087582.8      1708.9799      14127.855    
   5480000   5480           305.87216      192.80916      307.60467     -1087518.2     -1087580.2     -1886.2806      14127.855    
   5480500   5480.5         303.70271      342.14769      303.37715     -1087521.2     -1087582.8     -19.397156      14127.855    
   5481000   5481           289.77013      278.65305      290.10835     -1087522.3     -1087581.1      816.06194      14127.855    
   5481500   5481.5         288.57133      374.03721      287.5977      -1087518.8     -1087577.3     -2185.4004      14127.855    
   5482000   5482           298.15991      327.76011      297.95083     -1087516.7     -1087577.2     -602.16196      14127.855    
   5482500   5482.5         302.21525      325.59397      302.09325     -1087514.9     -1087576.2      1798.0105      14127.855    
   5483000   5483           301.8991       327.24952      301.75013     -1087518.6     -1087579.9      917.38061      14127.855    
   5483500   5483.5         294.46074      291.24061      294.6948      -1087521       -1087580.7      1106.7886      14127.855    
   5484000   5484           299.61115      324.42054      299.46804     -1087518.3     -1087579        1641.7517      14127.855    
   5484500   5484.5         307.33534      286.64996      307.8148      -1087517.3     -1087579.6     -379.32585      14127.855    
   5485000   5485           282.91745      295.14535      282.93434     -1087522.4     -1087579.8      955.59602      14127.855    
   5485500   5485.5         305.42692      249.40444      306.38484     -1087515.4     -1087577.3     -1729.3983      14127.855    
   5486000   5486           296.29629      231.82716      297.36296     -1087518.9     -1087579       -1548.7755      14127.855    
   5486500   5486.5         305.58125      413.18066      304.31815     -1087518.7     -1087580.7     -1321.363       14127.855    
   5487000   5487           293.91299      344.6346       293.41445     -1087521.8     -1087581.4     -992.05026      14127.855    
   5487500   5487.5         306.17657      323.39181      306.1408      -1087518.1     -1087580.2      1068.8639      14127.855    
   5488000   5488           300.7037       308.95427      300.78608     -1087519.1     -1087580.1     -1327.4938      14127.855    
   5488500   5488.5         300.98631      248.77693      301.88959     -1087519.1     -1087580.1     -2043.0016      14127.855    
   5489000   5489           303.39258      288.95844      303.78464     -1087520.9     -1087582.5     -1887.2844      14127.855    
   5489500   5489.5         300.54527      270.50001      301.1474      -1087521.3     -1087582.2     -1361.8582      14127.855    
   5490000   5490           288.27406      366.37079      287.40026     -1087522.4     -1087580.9     -1053.7627      14127.855    
   5490500   5490.5         304.33846      288.8611       304.74529     -1087519.2     -1087581        309.2776       14127.855    
   5491000   5491           293.29703      228.97754      294.35974     -1087517.5     -1087577       -2907.8066      14127.855    
   5491500   5491.5         306.28342      296.9028       306.60875     -1087517.2     -1087579.3     -649.4631       14127.855    
   5492000   5492           301.31219      234.73101      302.41078     -1087518.3     -1087579.4      676.15033      14127.855    
   5492500   5492.5         299.42149      272.08938      299.98607     -1087517.2     -1087577.9     -2688.0047      14127.855    
   5493000   5493           284.2604       402.40106      282.84043     -1087519.6     -1087577.2     -2605.9261      14127.855    
   5493500   5493.5         297.37451      246.46869      298.25776     -1087519.2     -1087579.5     -103.97487      14127.855    
   5494000   5494           301.09556      321.23114      301.01686     -1087517.9     -1087579       -845.37645      14127.855    
   5494500   5494.5         294.1542       186.72077      295.80271     -1087518.1     -1087577.7      3729.0985      14127.855    
   5495000   5495           312.80286      308.43167      313.0644      -1087510.2     -1087573.6      1237.6728      14127.855    
   5495500   5495.5         298.76331      290.81001      299.06439     -1087516.7     -1087577.3      75.009394      14127.855    
   5496000   5496           303.81433      405.19768      302.63447     -1087516.6     -1087578.2     -2478.7605      14127.855    
   5496500   5496.5         315.67042      337.42239      315.5792      -1087514.6     -1087578.6     -726.00512      14127.855    
   5497000   5497           299.18284      298.84033      299.38089     -1087520.1     -1087580.7     -1600.3858      14127.855    
   5497500   5497.5         304.50496      227.13229      305.7521      -1087519.9     -1087581.6      1058.2371      14127.855    
   5498000   5498           301.91786      286.07311      302.32811     -1087520.4     -1087581.6     -2026.5535      14127.855    
   5498500   5498.5         296.55312      215.53084      297.84467     -1087523.3     -1087583.4     -2522.9768      14127.855    
   5499000   5499           295.76737      304.19307      295.84418     -1087516.6     -1087576.6     -1394.1349      14127.855    
   5499500   5499.5         311.43498      347.68118      311.14427     -1087518       -1087581.2     -988.30423      14127.855    
   5500000   5500           300.6045       365.53638      299.91739     -1087520.7     -1087581.6     -152.08305      14127.855    
Loop time of 86239.9 on 1 procs for 5000000 steps with 1570 atoms

Performance: 5.009 ns/day, 4.791 hours/ns, 57.978 timesteps/s, 91.025 katom-step/s
99.9% CPU use with 1 MPI tasks x 1 OpenMP threads

MPI task timing breakdown:
Section |  min time  |  avg time  |  max time  |%varavg| %total
---------------------------------------------------------------
Pair    | 85033      | 85033      | 85033      |   0.0 | 98.60
Bond    | 0.5295     | 0.5295     | 0.5295     |   0.0 |  0.00
Neigh   | 97.31      | 97.31      | 97.31      |   0.0 |  0.11
Comm    | 236.74     | 236.74     | 236.74     |   0.0 |  0.27
Output  | 13.911     | 13.911     | 13.911     |   0.0 |  0.02
Modify  | 722.67     | 722.67     | 722.67     |   0.0 |  0.84
Other   |            | 135.4      |            |       |  0.16

Nlocal:           1570 ave        1570 max        1570 min
Histogram: 1 0 0 0 0 0 0 0 0 0
Nghost:           4127 ave        4127 max        4127 min
Histogram: 1 0 0 0 0 0 0 0 0 0
Neighs:              0 ave           0 max           0 min
Histogram: 1 0 0 0 0 0 0 0 0 0
FullNghs:       198796 ave      198796 max      198796 min
Histogram: 1 0 0 0 0 0 0 0 0 0

Total # of neighbors = 198796
Ave neighs/atom = 126.62166
Ave special neighs/atom = 0
Neighbor list builds = 207106
Dangerous builds = 0
write_restart       pbc/restart_alanine_pbc_off23_stage13corr_s991000_20260319_194116_prod.lammps
System init for write_restart ...
write_data          pbc/alanine_pbc_off23_stage13corr_s991000_20260319_194116_prod_final.data
System init for write_data ...
Total wall time: 23:57:29
